LAMMPS (4 May 2022)
OMP_NUM_THREADS environment is not set. Defaulting to 1 thread. (src/comm.cpp:98)
  using 1 OpenMP thread(s) per MPI task
# spc water - 1=O, 2=H

read_restart    water1.restart
Reading restart file ...
  restart file = 4 May 2022, LAMMPS = 4 May 2022
  restoring atom style full from restart
  orthogonal box = (-0.37243268 -0.37243268 -0.37243268) to (12.772433 12.772433 12.772433)
  1 by 1 by 1 MPI processor grid
  restoring pair style lj/cut/coul/long from restart
  restoring bond style harmonic from restart
  restoring angle style harmonic from restart
  192 atoms
  128 bonds
  64 angles
Finding 1-2 1-3 1-4 neighbors ...
  special bond factors lj:    0        0        0       
  special bond factors coul:  0        0        0       
     2 = max # of 1-2 neighbors
     1 = max # of 1-3 neighbors
     1 = max # of 1-4 neighbors
     2 = max # of special neighbors
  special bonds CPU = 0.000 seconds
  read_restart CPU = 0.004 seconds

kspace_style   pppm 1.0e-5

group oxygen type 1
64 atoms in group oxygen

#======================
neighbor        2.0 bin
neigh_modify    every 1 delay 1 check yes
#======================

#reset_timestep 0
timestep 1.0

fix            1 all shake 0.0001 20 0 b 1 a 1
       0 = # of size 2 clusters
       0 = # of size 3 clusters
       0 = # of size 4 clusters
      64 = # of frozen angles
  find clusters CPU = 0.000 seconds
fix            2 all npt temp 300.0 300.0 100.0 iso 1.0 1.0 1000.0
Resetting global fix info from restart file:
  fix style: npt, fix ID: 2
fix            3 all momentum 1 linear 1 1 1
fix	       xwall1 all wall/lj93 xlo EDGE 1.0 1.0 2.5 pbc yes
fix	       xwall2 all wall/lj93 xhi EDGE 1.0 1.0 2.5 pbc yes
fix	       ywall1 all wall/lj93 ylo EDGE 1.0 1.0 2.5 pbc yes
fix	       ywall2 all wall/lj93 yhi EDGE 1.0 1.0 2.5 pbc yes
fix	       zwall1 all wall/lj93 zlo EDGE 1.0 1.0 2.5 pbc yes
fix	       zwall2 all wall/lj93 zhi EDGE 1.0 1.0 2.5 pbc yes

compute	MSD oxygen msd com no
fix 4 oxygen ave/time 1 1 500 c_MSD[4] file ../spc4.msd

thermo 100
thermo_style custom step temp pe etotal press enthalpy lx ly lz pxx pyy pzz
thermo_modify flush yes


dump         2 all custom 1000 md2.lammpstrj id type x y z
#dump_modify  1 unwrap yes
run 100000
PPPM initialization ...
  using 12-bit tables for long-range coulomb (src/kspace.cpp:342)
  G vector (1/distance) = 0.30856956
  grid = 12 12 12
  stencil order = 5
  estimated absolute RMS force accuracy = 0.0021268634
  estimated relative force accuracy = 6.4049859e-06
  using double precision FFTW3
  3d grid and FFT values/proc = 6859 1728
Generated 0 of 1 mixed pair_coeff terms from geometric mixing rule
All restart file global fix info was re-assigned
Neighbor list info ...
  update every 1 steps, delay 1 steps, check yes
  max neighbors/atom: 2000, page size: 100000
  master list distance cutoff = 12
  ghost atom cutoff = 12
  binsize = 6, bins = 3 3 3
  1 neighbor lists, perpetual/occasional/extra = 1 0 0
  (1) pair lj/cut/coul/long, perpetual
      attributes: half, newton on
      pair build: half/bin/newton
      stencil: half/bin/3d
      bin: standard
Per MPI rank memory allocation (min/avg/max) = 10.24 | 10.24 | 10.24 Mbytes
   Step          Temp          PotEng         TotEng         Press         Enthalpy          Lx             Ly             Lz            Pxx            Pyy            Pzz      
      1000   256.86707     -558.82636     -461.58603     -13535.874     -909.9499       13.144865      13.144865      13.144865     -13049.395     -13865.145     -13693.081    
      1100   296.89176     -566.51587     -454.12368     -2389.1445     -529.10796      12.910726      12.910726      12.910726     -141.77505     -3159.1048     -3866.5537    
      1200   290.51464     -567.18962     -457.21156     -1390.9504     -498.7378       12.697308      12.697308      12.697308     -926.33127     -2139.6585     -1106.8614    
      1300   307.85881     -594.03117     -477.48725      598.66659     -460.22144      12.551879      12.551879      12.551879     -1978.2179      2770.3496      1003.8681    
      1400   304.17868     -616.56234     -501.41159     -980.16345     -529.13823      12.471182      12.471182      12.471182     -3555.5909     -743.83967      1358.9402    
      1500   281.41758     -630.43787     -523.90362      128.11298     -520.33722      12.404727      12.404727      12.404727      1527.9892     -561.93347     -581.71679    
      1600   289.1958      -639.49958     -530.02079      1536.5021     -487.69357      12.361473      12.361473      12.361473     -181.60449      4379.9559      411.15474    
      1700   284.17788     -639.71547     -532.13628      203.4923      -526.50294      12.38171       12.38171       12.38171      -412.14212      3139.6286     -2117.0096    
      1800   300.7759      -626.64927     -512.78668      2316.4988     -447.72179      12.441696      12.441696      12.441696      1521.5889      2926.6139      2501.2935    
      1900   317.33808     -615.03968     -494.90726      172.89119     -489.94234      12.533947      12.533947      12.533947     -734.14308      2391.0652     -1138.2485    
      2000   307.40992     -608.59941     -492.22543     -269.6489      -500.12169      12.615826      12.615826      12.615826      289.09907      1092.522      -2190.5678    
      2100   320.83162     -613.42515     -491.97021     -1729.1879     -543.40184      12.681503      12.681503      12.681503     -3560.9773      1533.6652     -3160.2515    
      2200   296.71775     -606.91632     -494.58999     -974.81691     -523.90325      12.727849      12.727849      12.727849     -971.27908     -691.86543     -1261.3062    
      2300   268.25316     -601.9544      -500.40371     -2763.6141     -583.81282      12.743442      12.743442      12.743442     -2003.7055     -216.10285     -6071.034     
      2400   266.04443     -597.91411     -497.19956     -427.6325      -509.9336       12.686442      12.686442      12.686442      2609.3528      1199.915      -5092.1653    
      2500   317.0665      -603.18933     -483.15973     -352.78603     -493.46242      12.604371      12.604371      12.604371     -2482.1661      1730.2327     -306.42475    
      2600   298.0286      -596.62039     -483.79783      652.95964     -465.05775      12.5315        12.5315        12.5315        611.53222      588.75086      758.59583    
      2700   288.96735     -607.65342     -498.26111     -678.17965     -517.50578      12.484274      12.484274      12.484274     -2768.3871      534.65063      199.1975     
      2800   330.70122     -633.35981     -508.16861     -317.19181     -517.0863       12.44567       12.44567       12.44567      -707.69769      1179.7376     -1423.6153    
      2900   292.84182     -623.57562     -512.71658      1838.0915     -461.12551      12.438763      12.438763      12.438763     -489.66052      4481.5401      1522.395     
      3000   301.36196     -621.5606      -507.47615     -522.5823      -522.25453      12.469969      12.469969      12.469969     -3142.2167     -940.42177      2514.8916    
      3100   277.2801      -611.20396     -506.23601      1273.5931     -470.09164      12.484697      12.484697      12.484697      3550.9672      77.380935      192.43124    
      3200   317.95082     -615.30877     -494.9444       858.04021     -470.50521      12.499743      12.499743      12.499743      673.24869      3127.3229     -1226.451     
      3300   324.22059     -614.22205     -491.48417     -934.27517     -518.19139      12.514859      12.514859      12.514859     -559.82398     -1591.8988     -651.10271    
      3400   300.18312     -629.95267     -516.31448     -533.65064     -531.58147      12.518151      12.518151      12.518151     -1807.6092      1183.0774     -976.42015    
      3500   298.38233     -631.26103     -518.30455     -1022.8029     -547.62891      12.527187      12.527187      12.527187     -221.10832     -2960.7123      113.41181    
      3600   308.36058     -629.5489      -512.81503     -1668.3909     -560.5884       12.521914      12.521914      12.521914     -4557.7665     -128.69969     -318.7066     
      3700   291.06581     -631.15307     -520.96637     -253.77409     -528.1899       12.497087      12.497087      12.497087     -2129.9877      1957.6903     -589.02494    
      3800   294.57614     -630.85623     -519.34063      499.63412     -505.17988      12.479183      12.479183      12.479183      2074.0303     -1153.3732      578.24519    
      3900   311.35292     -626.029       -508.16235      2570.6193     -435.48638      12.468831      12.468831      12.468831      2145.1324      2790.3007      2776.4248    
      4000   312.65648     -617.14387     -498.78373      265.52862     -491.1937       12.514652      12.514652      12.514652     -441.67399      719.6622       518.59765    
      4100   335.6447      -622.57539     -495.51276      367.50037     -484.85588      12.574736      12.574736      12.574736     -1134.0431      401.88056      1834.6637    
      4200   276.55332     -618.33228     -513.63946     -990.43357     -542.70766      12.625221      12.625221      12.625221     -2622.6277     -377.60908      28.936035    
      4300   309.96265     -634.40596     -517.06561     -2839.9399     -600.40974      12.62496       12.62496       12.62496      -2915.628      -3175.7389     -2428.4527    
      4400   274.74404     -626.0845      -522.07661     -167.05996     -526.89893      12.555559      12.555559      12.555559      1769.2928      1831.1146     -4101.5872    
      4500   331.49678     -628.91334     -503.42097      2142.8787     -442.66851      12.480447      12.480447      12.480447      4490.5062      1855.1524      82.977338    
      4600   317.23175     -615.42315     -495.33099      1438.2959     -454.66563      12.469053      12.469053      12.469053      1397.5523      1903.9832      1013.3524    
      4700   288.05276     -625.36497     -516.31889      2766.1106     -437.82616      12.484218      12.484218      12.484218      2024.4227      2408.4967      3865.4124    
      4800   268.56563     -629.74341     -528.07443     -768.3432      -550.05396      12.517831      12.517831      12.517831     -2671.5604      1603.5132     -1236.9824    
      4900   282.9523      -628.98132     -521.86609     -728.29653     -542.76391      12.530612      12.530612      12.530612     -2365.0542     -1038.0487      1218.2133    
      5000   291.09927     -620.62514     -510.42577     -20.665729     -511.01833      12.527647      12.527647      12.527647     -2054.2819      1319.4526      672.83207    
      5100   288.12945     -613.82493     -504.74982     -1143.2455     -537.36258      12.506163      12.506163      12.506163     -16.564858     -524.42011     -2888.7515    
      5200   289.71778     -609.49377     -499.81737      1072.4077     -469.60848      12.453736      12.453736      12.453736      1672.1975      1155.1719      389.85363    
      5300   311.71158     -617.55521     -499.55278     -58.528923     -501.19027      12.425414      12.425414      12.425414     -2906.2534      1320.9905      1409.6762    
      5400   311.84372     -622.62986     -504.57741      762.51306     -483.26092      12.42217       12.42217       12.42217       3625.272      -1615.4618      277.72901    
      5500   288.773       -617.70276     -508.38402      1229.5987     -473.9485       12.42956       12.42956       12.42956       1814.1943      594.43525      1280.1667    
      5600   299.18239     -621.92162     -508.66227      1184.5171     -475.32051      12.450604      12.450604      12.450604      2941.7201      1076.0039     -464.17267    
      5700   295.1043      -617.37569     -505.66015     -1224.7529     -540.62104      12.508907      12.508907      12.508907      2062.8524     -3916.5451     -1820.566     
      5800   291.98372     -608.94103     -498.40683     -420.41343     -510.54303      12.555772      12.555772      12.555772      72.173577     -1504.0116      170.59773    
      5900   328.92637     -621.64479     -497.12547      1279.092      -459.91487      12.588182      12.588182      12.588182      1159.5964      1494.9237      1182.7558    
      6000   302.26138     -604.37655     -489.95162      562.12802     -473.40081      12.638707      12.638707      12.638707      3178.7097      329.11158     -1821.4372    
      6100   296.8977      -614.46201     -502.06757     -3061.3736     -592.70043      12.661869      12.661869      12.661869     -2465.3671     -2764.8418     -3953.9121    
      6200   261.3009      -603.51366     -504.59484      68.687349     -502.58133      12.620205      12.620205      12.620205     -2806.5035      999.19802      2013.3675    
      6300   291.50702     -613.65024     -503.2965       1582.1506     -457.45423      12.571318      12.571318      12.571318      328.68938      5067.7746     -650.01209    
      6400   312.19825     -615.00826     -496.8216       2410.2711     -427.29283      12.552809      12.552809      12.552809      4602.8844      3262.8955     -634.96644    
      6500   310.56314     -619.33643     -501.76876      1489.7845     -458.19065      12.611198      12.611198      12.611198      272.94429      2141.589       2054.8201    
      6600   295.59388     -611.71473     -499.81386     -1978.9513     -558.79894      12.690452      12.690452      12.690452     -1331.0852     -3128.4087     -1477.3598    
      6700   279.73097     -606.55985     -500.66409     -1940.7475     -558.84624      12.714958      12.714958      12.714958     -5078.2147     -654.44908     -89.578741    
      6800   290.29072     -610.14962     -500.25633     -145.08611     -504.5845       12.694067      12.694067      12.694067     -2131.1021      1340.8677      354.97607    
      6900   305.33188     -624.70601     -509.11869      2217.1962     -443.01253      12.691725      12.691725      12.691725      3434.0286      2538.1636      679.39645    
      7000   285.20232     -612.92356     -504.95654     -44.130174     -506.28436      12.730412      12.730412      12.730412      1256.7978     -1542.7626      153.57427    
      7100   294.06891     -609.17498     -497.85141     -2376.7885     -569.72218      12.75152       12.75152       12.75152      -3506.0143     -279.66257     -3344.6888    
      7200   354.46526     -620.18475     -485.99736     -1607.8333     -534.25452      12.719839      12.719839      12.719839     -835.25587     -1380.0744     -2608.1697    
      7300   318.31279     -614.91873     -494.41732     -2167.5974     -558.46755      12.653832      12.653832      12.653832     -1137.736      -917.88357     -4447.1728    
      7400   308.08234     -625.5257      -508.89716      483.22169     -495.0069       12.538032      12.538032      12.538032      574.60599      285.77342      589.28567    
      7500   287.9565      -635.34458     -526.33494      2205.1376     -464.5444       12.43188       12.43188       12.43188       115.54787     -293.65283      6793.5179    
      7600   303.50755     -649.44775     -534.55105      1286.1531     -498.98219      12.377525      12.377525      12.377525     -47.128769      1119.0539      2786.5342    
      7700   287.29724     -645.37525     -536.61518      1581.3959     -493.0428       12.362271      12.362271      12.362271      1444.9896      2320.0758      979.12233    
      7800   271.54402     -635.90181     -533.10533      3302.4237     -441.5413       12.38812       12.38812       12.38812       6243.5621     -873.96002      4537.6689    
      7900   310.42259     -643.47227     -525.9578       2269.5771     -461.83474      12.466115      12.466115      12.466115      2667.6748     -665.58408      4806.6405    
      8000   285.70064     -628.37144     -520.21578     -867.01736     -545.50217      12.598758      12.598758      12.598758     -385.96304     -708.39468     -1506.6944    
      8100   281.62081     -619.66178     -513.0506       410.30031     -500.74752      12.715849      12.715849      12.715849     -2032.7142      1837.322       1426.2932    
      8200   328.05269     -622.74525     -498.55668     -4956.8025     -650.29319      12.80376       12.80376       12.80376      -4533.8226     -4619.033      -5717.552     
      8300   280.72239     -614.18759     -507.91651     -909.15524     -535.49218      12.764506      12.764506      12.764506     -142.40075     -922.20595     -1662.859     
      8400   310.51583     -611.30354     -493.75377     -186.62744     -499.29164      12.671568      12.671568      12.671568     -2910.2209     -345.21135      2695.5499    
      8500   318.77356     -602.66511     -481.98927      4127.9074     -361.23583      12.611437      12.611437      12.611437      4879.8434      2589.0361      4914.8426    
      8600   344.32057     -617.52175     -487.17476      2760.7583     -405.79701      12.643495      12.643495      12.643495      3018.3371      3268.2418      1995.6959    
      8700   287.73718     -604.8658      -495.93918      1320.6451     -456.04329      12.747412      12.747412      12.747412      2669.4298      2516.5563     -1224.0507    
      8800   307.2774      -607.74361     -491.41979     -417.51063     -504.36155      12.857304      12.857304      12.857304     -1444.8403     -190.01471      382.32314    
      8900   293.05535     -599.18161     -488.24174     -3419.3588     -595.68712      12.915832      12.915832      12.915832     -5800.9644     -1551.5993     -2905.5126    
      9000   325.1192      -596.46688     -473.38882     -2034.9868     -536.63222      12.86844       12.86844       12.86844      -2127.8665     -3248.5055     -728.58838    
      9100   332.49574     -599.83538     -473.96483     -325.52387     -483.87504      12.780308      12.780308      12.780308     -2375.2873     -511.27907      1909.9948    
      9200   282.36231     -595.48506     -488.59317      974.63349     -459.30685      12.724749      12.724749      12.724749      376.29211      2450.111       97.497342    
      9300   261.25753     -609.23066     -510.32826      520.01109     -494.84243      12.686699      12.686699      12.686699     -1671.4147      3919.6296     -688.18161    
      9400   284.74519     -614.90331     -507.10935     -481.37348     -521.32602      12.651633      12.651633      12.651633     -128.93121     -1387.0545      71.865268    
      9500   302.94745     -612.53682     -497.85216      2832.5343     -414.81792      12.620272      12.620272      12.620272      989.75561      5737.746       1770.1012    
      9600   335.28726     -619.25281     -492.3255       528.63718     -476.6815       12.660129      12.660129      12.660129     -654.76509      1344.0552      896.62145    
      9700   303.33692     -609.20908     -494.37698     -854.25918     -520.00684      12.718235      12.718235      12.718235      1259.9749     -4092.0388      269.28631    
      9800   278.19925     -615.80094     -510.48503     -680.32664     -531.00527      12.74079       12.74079       12.74079      -2203.8274      435.87228     -273.0248     
      9900   289.60262     -632.40792     -522.77512     -3036.2047     -613.7778       12.714006      12.714006      12.714006     -1607.8477     -2961.5784     -4539.1881    
     10000   276.99341     -649.48375     -544.62433     -2562.9574     -619.80442      12.622979      12.622979      12.622979     -4494.1936     -3013.3085     -181.37007    
     10100   284.36217     -646.28618     -538.63722      1590.051      -493.29618      12.504553      12.504553      12.504553      1784.2659      1932.6775      1053.2095    
     10200   279.04769     -637.94854     -532.31144      4894.0433     -394.83508      12.442131      12.442131      12.442131      6869.3263      3526.6452      4286.1584    
     10300   313.98556     -635.82559     -516.96231      1320.2631     -479.55401      12.477968      12.477968      12.477968     -1999.4744      3608.0786      2352.185     
     10400   283.88981     -624.32819     -516.85805      1728.7357     -466.8576       12.563861      12.563861      12.563861     -90.744919      4505.359       771.59295    
     10500   323.6757      -623.29993     -500.76833     -914.16133     -527.87469      12.668469      12.668469      12.668469     -806.31992     -330.96323     -1605.2009    
     10600   338.807       -607.80115     -479.5414      -3246.8719     -577.54387      12.743792      12.743792      12.743792     -2312.8022     -3256.345      -4171.4684    
     10700   316.56142     -608.44888     -488.61048     -2790.347      -572.784        12.741302      12.741302      12.741302     -1742.8555     -3544.7918     -3083.3935    
     10800   283.01162     -605.76153     -498.62383     -904.37239     -525.54886      12.6856        12.6856        12.6856       -2866.1043      2925.7375     -2772.7504    
     10900   288.08321     -594.11626     -485.05865      2722.9367     -405.60351      12.600937      12.600937      12.600937      4038.5402      120.12012      4010.1497    
     11000   337.63266     -607.32861     -479.51342      2384.4071     -410.37348      12.574505      12.574505      12.574505     -1501.8855      6375.9578      2279.1489    
     11100   303.64583     -621.30126     -506.35222     -1620.1864     -553.79127      12.615322      12.615322      12.615322     -3898.5769      8.5455432     -970.52798    
     11200   263.16946     -609.95946     -510.33327      50.559193     -508.84499      12.637754      12.637754      12.637754     -1864.3342      1609.4423      406.56951    
     11300   301.31642     -627.31275     -513.24554     -487.91326     -527.63236      12.644901      12.644901      12.644901      3024.0058     -2708.7732     -1778.9723    
     11400   281.17703     -622.81131     -516.36812      609.12015     -498.45056      12.634751      12.634751      12.634751      1747.1509      2404.311      -2324.1015    
     11500   294.92751     -622.92073     -511.27212      1853.0843     -456.66535      12.642272      12.642272      12.642272      4042.4931      1343.6857      173.07423    
     11600   323.67505     -614.42748     -491.89612      773.63216     -468.89074      12.680598      12.680598      12.680598     -947.13417      283.24949      2984.7811    
     11700   308.73619     -615.83003     -498.95397     -1316.4183     -538.40705      12.713654      12.713654      12.713654     -1663.4296     -894.28237     -1391.543     
     11800   293.16712     -628.85287     -517.87068     -553.26007     -534.48011      12.720863      12.720863      12.720863     -1748.5023      1755.4205     -1666.6984    
     11900   270.14456     -626.11318     -523.84648     -2035.1953     -584.6827       12.702623      12.702623      12.702623     -1117.8937     -1653.7698     -3333.9223    
     12000   315.94098     -629.94518     -510.34165     -1216.8112     -546.19104      12.641372      12.641372      12.641372     -1457.0621     -3170.2205      976.84909    
     12100   322.42271     -628.69007     -506.6328      -347.49082     -516.65717      12.552955      12.552955      12.552955      1720.792      -918.49646     -1844.768     
     12200   300.17116     -628.62452     -514.99086      1294.4591     -478.2341       12.486987      12.486987      12.486987      402.82478      2901.7991      578.75334    
     12300   324.99225     -639.78915     -516.75915      1870.5338     -463.4063       12.505625      12.505625      12.505625      1728.6016     -73.957572      3956.9572    
     12400   298.35099     -629.47624     -516.53163      450.95491     -503.39705      12.59319       12.59319       12.59319      -1140.1963     -325.3458       2818.4068    
     12500   329.22441     -634.76856     -510.13642      20.64991      -509.52259      12.678966      12.678966      12.678966     -2767.0464      636.84389      2192.1522    
     12600   279.55148     -633.00497     -527.17716     -1255.5219     -565.07052      12.743468      12.743468      12.743468     -2404.2839     -2655.3792      1293.0974    
     12700   276.55957     -634.6008      -529.90561     -2208.3188     -596.82543      12.760637      12.760637      12.760637     -4247.9625     -1714.3046     -662.68932    
     12800   318.08677     -641.39765     -520.98181     -1631.6243     -569.91521      12.716564      12.716564      12.716564     -4124.7867      5.7530851     -775.83921    
     12900   262.94569     -617.07241     -517.53094     -457.98977     -530.96623      12.62327       12.62327       12.62327      -2406.6686      681.77974      350.91949    
     13000   300.08732     -622.9639      -509.36198      1233.0193     -473.87131      12.543618      12.543618      12.543618      804.34565      1622.2826      1272.4297    
     13100   314.08109     -631.35312     -512.45368      269.22108     -504.77851      12.503577      12.503577      12.503577      2303.3192      1599.7484     -3095.4043    
     13200   271.48675     -637.97236     -535.19756     -1133.6695     -567.30966      12.476769      12.476769      12.476769     -409.67868     -704.62133     -2286.7085    
     13300   276.42286     -641.89623     -537.2528       883.77737     -512.55687      12.420398      12.420398      12.420398     -433.77488      2785.705       299.40195    
     13400   298.99688     -633.35536     -520.16624      4128.3373     -405.87116      12.382039      12.382039      12.382039      5017.9981      6289.8396      1077.174     
     13500   322.83225     -634.78646     -512.57415      1898.4955     -459.584        12.415663      12.415663      12.415663     -491.24256      4322.2822      1864.4469    
     13600   312.26498     -638.55198     -520.34005      1388.7614     -480.92195      12.485254      12.485254      12.485254      261.39099      2225.0521      1679.8413    
     13700   308.04605     -651.46441     -534.84961     -715.2696      -555.50648      12.557589      12.557589      12.557589     -2475.0362     -791.10216      1120.3295    
     13800   324.70097     -656.53955     -533.61982      360.8772      -523.04609      12.618205      12.618205      12.618205     -854.8169       1432.8058      504.64274    
     13900   287.59636     -647.98942     -539.11612      249.95261     -531.68374      12.680352      12.680352      12.680352     -961.77937      1111.9257      599.71147    
     14000   281.60484     -638.786       -532.18086     -983.73412     -561.80275      12.733653      12.733653      12.733653     -976.7412      -1719.9951     -254.46603    
     14100   287.89775     -627.99068     -519.00327     -1847.5831     -575.04508      12.764704      12.764704      12.764704     -3999.6884     -1649.0258      105.96489    
     14200   325.42183     -633.75064     -510.55801     -1611.8442     -559.20463      12.743378      12.743378      12.743378     -1530.7802     -1200.6374     -2104.1151    
     14300   298.40563     -629.88502     -516.91972      197.46186     -511.05483      12.67556       12.67556       12.67556      -826.74305      652.48387      766.64477    
     14400   301.97051     -630.75099     -516.43617      1869.8119     -461.8557       12.602435      12.602435      12.602435     -63.072875      3278.6688      2393.8398    
     14500   298.08397     -631.08136     -518.23783      373.86933     -507.45133      12.55341       12.55341       12.55341      -170.69718      302.25706      990.0481     
     14600   307.46803     -628.42398     -512.028       -432.37533     -524.36131      12.505882      12.505882      12.505882     -1086.6699     -253.21258      42.756512    
     14700   342.26418     -624.87627     -495.30776      2453.497      -425.88117      12.472537      12.472537      12.472537      988.72126      1967.1716      4404.5981    
     14800   339.57079     -642.96891     -514.42001      1820.5758     -462.40558      12.512566      12.512566      12.512566      808.73948      1496.5976      3156.3903    
     14900   259.43482     -627.93405     -529.72166     -671.92617     -549.32101      12.599349      12.599349      12.599349      1119.9085     -4141.7684      1006.0813    
     15000   266.92307     -618.06052     -517.01335     -1592.7078     -564.1062       12.65652       12.65652       12.65652      -2777.6879     -2265.6078      265.17234    
     15100   274.44085     -601.34238     -497.44927      173.00054     -492.30521      12.680243      12.680243      12.680243     -717.74125     -843.08849      2079.8314    
     15200   280.46783     -593.05262     -486.87792     -1158.4533     -521.3521       12.683716      12.683716      12.683716     -4631.6408      1132.2607      24.020261    
     15300   326.72245     -605.25085     -481.56586     -303.8409      -490.53417      12.649196      12.649196      12.649196     -570.48466     -224.08354     -116.9545     
     15400   310.46949     -606.57592     -489.0437       1094.8953     -456.93093      12.622433      12.622433      12.622433     -3368.466       1441.5413      5211.6106    
     15500   309.63216     -617.66626     -500.45102      2380.7753     -429.98279      12.660952      12.660952      12.660952     -1976.8489      5362.7639      3756.411     
     15600   241.81257     -605.95454     -514.41328      433.75908     -501.28138      12.756582      12.756582      12.756582      1238.2531     -308.52287      371.547      
     15700   275.21799     -613.7695      -509.58219     -5300.2791     -672.57231      12.823175      12.823175      12.823175     -6596.2976     -4401.6201     -4902.9197    
     15800   332.00698     -633.54341     -507.85789      291.5439      -498.98055      12.781083      12.781083      12.781083     -1345.6367      2198.7442      21.524233    
     15900   278.48842     -615.13132     -509.70595     -923.8069      -537.5394       12.736106      12.736106      12.736106     -619.12926     -1904.8468     -247.44463    
     16000   306.75512     -617.8145      -501.6884       298.81795     -492.80276      12.680472      12.680472      12.680472      477.55658      352.59242      66.304853    
     16100   318.10664     -612.22047     -491.7971       1578.6128     -445.28948      12.641275      12.641275      12.641275      4362.3907     -3988.3337      4361.7813    
     16200   340.3819      -625.94795     -497.092        1941.2441     -439.69186      12.656656      12.656656      12.656656      717.82363      3170.9722      1934.9364    
     16300   305.31808     -632.31989     -516.7378      -222.88152     -523.45419      12.736846      12.736846      12.736846     -3430.7483      2297.7495      464.35429    
     16400   287.76307     -624.0185      -515.08208     -1877.753      -572.55463      12.803106      12.803106      12.803106     -2578.843      -1386.3744     -1668.0416    
     16500   321.71508     -632.51216     -510.72278      204.80825     -504.41138      12.832189      12.832189      12.832189     -642.04113      783.09632      473.36954    
     16600   275.92161     -624.78879     -520.33511     -864.56468     -547.13048      12.856679      12.856679      12.856679     -2489.7263     -546.2808       442.31302    
     16700   271.80763     -631.85635     -528.96007     -1994.9053     -590.68436      12.849492      12.849492      12.849492     -2336.8972     -2722.9096     -924.90889    
     16800   302.70782     -635.93383     -521.33988      154.91099     -516.59401      12.807156      12.807156      12.807156      433.30788      1880.1214     -1848.6963    
     16900   329.49461     -630.89981     -506.16539      1063.1271     -473.81409      12.778412      12.778412      12.778412     -161.34625      2541.1216      809.60606    
     17000   283.27262     -614.11879     -506.88229     -100.21736     -509.94715      12.799613      12.799613      12.799613      50.349679     -2490.5862      2139.5844    
     17100   312.4447      -606.94782     -488.66786      75.54602      -486.33976      12.832293      12.832293      12.832293     -2276.6224     -2363.9858      4867.2462    
     17200   347.00032     -611.03532     -479.67388     -762.259       -503.38502      12.872356      12.872356      12.872356     -884.16291     -1411.0201      8.4059782    
     17300   263.78097     -603.67157     -503.81389     -1889.6613     -562.98446      12.90076       12.90076       12.90076      -2157.6824     -3128.9894     -382.31224    
     17400   287.30667     -616.4009      -507.63726     -2323.7029     -579.86551      12.86916       12.86916       12.86916      -3723.1151     -3680.4363      432.44271    
     17500   290.26395     -618.23012     -508.34696     -162.74102     -513.27861      12.760664      12.760664      12.760664      344.03316      1632.4807     -2464.737     
     17600   323.36193     -621.48575     -499.07293      2723.9767     -418.51751      12.657225      12.657225      12.657225      1821.3202     -577.64847      6928.2585    
     17700   338.98765     -630.95026     -502.62211      997.65624     -473.31684      12.628826      12.628826      12.628826      253.91401      868.04256      1871.0121    
     17800   297.50425     -634.00789     -521.38383     -569.43833     -538.19438      12.649883      12.649883      12.649883     -1510.1664     -2257.9362      2059.7877    
     17900   286.44016     -626.49785     -518.06224     -308.54125     -527.23515      12.679615      12.679615      12.679615      1003.4169     -1215.1227     -713.91794    
     18000   295.29393     -620.62576     -508.83844     -258.40483     -516.57747      12.710718      12.710718      12.710718     -3978.2576     -56.304933      3259.3481    
     18100   343.73024     -629.48352     -499.36001      974.21152     -470.02487      12.733653      12.733653      12.733653      857.12257      802.54527      1262.9667    
     18200   327.99986     -624.63624     -500.46767     -431.76375     -513.62622      12.784842      12.784842      12.784842     -2206.9127      594.26888      317.35256    
     18300   317.87618     -607.70677     -487.37065     -73.406185     -489.65455      12.873293      12.873293      12.873293      3669.4049     -1887.6463     -2001.9771    
     18400   299.7295      -589.36213     -475.89567     -3612.3931     -589.8665       12.933248      12.933248      12.933248     -4199.9285     -4006.1351     -2631.1159    
     18500   322.66991     -599.99627     -477.84542      484.10665     -462.6398       12.914048      12.914048      12.914048     -2022.285       2946.9411      527.66391    
     18600   287.94846     -607.47978     -498.47318     -723.14138     -521.07775      12.893349      12.893349      12.893349     -3477.8912      551.95933      756.50772    
     18700   283.35395     -610.70455     -503.43726      502.38096     -487.84279      12.863343      12.863343      12.863343     -1391.0685      718.70075      2179.5106    
     18800   298.40387     -615.48921     -502.52458     -586.56322     -520.60259      12.832755      12.832755      12.832755      3157.0163     -2850.165      -2066.5409    
     18900   347.53135     -608.07537     -476.51291      39.184375     -475.31679      12.791704      12.791704      12.791704     -219.3523       1016.7249     -679.81944    
     19000   306.36734     -600.34863     -484.36933      1344.0699     -443.63612      12.760969      12.760969      12.760969      1336.1126      273.12445      2422.9727    
     19100   305.83837     -610.4256      -494.64654      872.93267     -468.26336      12.749413      12.749413      12.749413      2143.3636      1532.2868     -1056.8524    
     19200   302.25948     -619.74884     -505.32462     -455.05387     -519.0904       12.753246      12.753246      12.753246     -499.43762      239.3108      -1105.0348    
     19300   272.29872     -611.06535     -507.98316     -239.95682     -515.22269      12.741889      12.741889      12.741889      285.92994      687.29813     -1693.0985    
     19400   318.63445     -618.9723      -498.34912      223.77801     -491.62548      12.724396      12.724396      12.724396      719.851       -551.65964      503.14267    
     19500   307.07278     -611.58855     -495.34219      2400.1656     -423.34156      12.717636      12.717636      12.717636      1308.7442     -240.66474      6132.4174    
     19600   303.13649     -608.32359     -493.56737      1976.1128     -434.04704      12.734813      12.734813      12.734813      2992.1526     -509.70365      3445.8896    
     19700   316.66188     -627.95623     -508.0798       1289.7036     -468.66896      12.796267      12.796267      12.796267      3091.3214      778.41844     -0.62891229   
     19800   251.31931     -614.01212     -518.87196     -807.18803     -544.14533      12.90043       12.90043       12.90043      -498.43651     -1304.9082     -618.2194     
     19900   274.14513     -605.01099     -501.22982      49.321455     -499.66001      12.971153      12.971153      12.971153     -840.4668       2155.7475     -1167.3163    
     20000   299.93063     -598.44272     -484.90012     -819.85298     -511.15504      12.997693      12.997693      12.997693     -555.79478     -1104.3092     -799.45492    
     20100   311.31598     -598.67367     -480.821       -2258.7914     -553.14862      12.997227      12.997227      12.997227     -2880.0858     -2160.3289     -1735.9596    
     20200   304.60275     -597.63632     -482.32503     -2297.9664     -555.26712      12.959439      12.959439      12.959439     -1168.9163     -2077.9346     -3647.0484    
     20300   272.82893     -585.39299     -482.11009      28.153788     -481.23549      12.866628      12.866628      12.866628      307.9024      -1051.1977      827.75667    
     20400   331.87551     -605.69451     -480.05877      616.50009     -461.37383      12.761277      12.761277      12.761277      2337.3802     -33.96246      -453.91748    
     20500   298.08133     -600.86712     -488.02459      888.04026     -461.57374      12.687529      12.687529      12.687529      360.40943     -32.079542      2335.7909    
     20600   269.64177     -609.74789     -507.67153     -423.3839      -520.12929      12.636007      12.636007      12.636007     -1180.0298      798.61987     -888.74177    
     20700   298.71891     -617.98675     -504.90286      1559.8132     -459.55327      12.58563       12.58563       12.58563       2608.9267      1715.9444      354.56847    
     20800   316.86076     -611.99283     -492.04111     -81.872791     -494.41407      12.572602      12.572602      12.572602     -398.73719     -1104.2216      1257.3404    
     20900   310.22532     -607.08897     -489.64917      665.69691     -470.38011      12.56713       12.56713       12.56713      -1796.6951      3011.5381      782.24774    
     21000   270.38274     -597.37802     -495.02115     -1286.3099     -532.28916      12.57105       12.57105       12.57105      -1134.0004     -1031.9939     -1692.9355    
     21100   318.76914     -610.96863     -490.29447      2654.9426     -413.65914      12.555461      12.555461      12.555461      1678.6448      1394.7684      4891.4145    
     21200   323.79335     -617.17406     -494.59792     -465.02964     -508.08811      12.576328      12.576328      12.576328     -3318.4697      378.82264      1544.5582    
     21300   299.68992     -634.15288     -520.7014       622.09223     -502.53614      12.603863      12.603863      12.603863      270.9549      -511.75946      2107.0813    
     21400   307.80674     -641.06355     -524.53934     -2949.6344     -611.24983      12.632109      12.632109      12.632109     -802.37789     -3306.434      -4740.0913    
     21500   276.18495     -628.86089     -524.30752     -958.99545     -552.23115      12.591954      12.591954      12.591954     -1645.5929     -1064.2057     -167.18782    
     21600   264.75799     -617.67793     -517.45039      2252.627      -453.02895      12.516659      12.516659      12.516659      2493.5707      3490.8348      773.47553    
     21700   273.74476     -603.55289     -499.92329      100.77383     -497.06326      12.48482       12.48482       12.48482       1159.41        2128.8283     -2985.9168    
     21800   280.14395     -597.37623     -491.32413      3630.548      -388.1662       12.489686      12.489686      12.489686      3597.0894      4797.5596      2496.9949    
     21900   332.72209     -617.8026      -491.84636     -6.8539502     -492.04501      12.572522      12.572522      12.572522     -757.0443       3174.4281     -2437.9457    
     22000   287.31733     -620.0909      -511.32323     -1036.7017     -542.11042      12.674966      12.674966      12.674966      107.59836     -2086.4887     -1131.2147    
     22100   285.53712     -620.03456     -511.94081     -1347.5575     -552.8353       12.766755      12.766755      12.766755     -1448.2647     -1199.8856     -1394.5222    
     22200   289.53247     -614.00064     -504.3944      -2665.202      -586.18296      12.814319      12.814319      12.814319     -3590.9915     -1630.0486     -2774.5658    
     22300   289.86812     -605.88922     -496.15592     -2610.365      -575.65174      12.781713      12.781713      12.781713      1099.3245     -4037.9063     -4892.5132    
     22400   328.25755     -614.40978     -490.14366     -2210.3187     -555.29745      12.643568      12.643568      12.643568     -1064.1101     -3759.7056     -1807.1404    
     22500   319.7264      -611.67287     -490.63632      3536.4        -390.81883      12.462059      12.462059      12.462059      2651.8186      4141.3129      3816.0687    
     22600   315.64537     -631.59925     -512.10763      2547.5171     -442.43802      12.331525      12.331525      12.331525      4003.2122      2284.0649      1355.2743    
     22700   327.00766     -645.37465     -521.5817       2575.8232     -452.08561      12.275979      12.275979      12.275979      1714.7986      3184.6599      2828.0112    
     22800   271.17577     -634.4414      -531.78432      1393.2726     -494.18304      12.27713       12.27713       12.27713       2578.3391      710.24574      891.23308    
     22900   321.95518     -646.41362     -524.53334      2886.485      -445.8344       12.318975      12.318975      12.318975     -310.70553      3687.7736      5282.3869    
     23000   302.52767     -632.51634     -517.9906      -169.72107     -522.72755      12.415448      12.415448      12.415448      361.69373     -318.96998     -551.88697    
     23100   362.77665     -636.56213     -499.22836     -704.11163     -519.27714      12.498469      12.498469      12.498469     -869.75719     -130.3155      -1112.2622    
     23200   344.14229     -622.42339     -492.1439      -2073.8504     -552.24444      12.572116      12.572116      12.572116     -1089.9446     -1044.4789     -4087.1277    
     23300   279.43481     -616.35963     -510.57599     -2072.3434     -570.96299      12.59511       12.59511       12.59511      -3152.0821     -2255.2098     -809.73827    
     23400   310.98356     -633.0668      -515.33997      263.60599     -507.72582      12.558277      12.558277      12.558277      1688.378      -278.98676     -618.57322    
     23500   279.6073      -630.43719     -524.58824      3706.8851     -418.23886      12.529969      12.529969      12.529969      2776.37        4350.6414      3993.6439    
     23600   278.65115     -631.25111     -525.76413      678.15335     -506.09589      12.575363      12.575363      12.575363     -2604.758       3623.2989      1015.9192    
     23700   300.92971     -634.35968     -520.43886     -3017.5988     -609.04109      12.627065      12.627065      12.627065     -4138.4392     -2593.5141     -2320.8431    
     23800   331.11569     -619.20986     -493.86175      1705.4189     -443.81767      12.624531      12.624531      12.624531      4177.8547      931.89321      6.5086716    
     23900   330.26844     -617.89919     -492.87181     -1715.5864     -543.36073      12.636764      12.636764      12.636764     -494.69378     -4032.1018     -619.96357    
     24000   292.74992     -614.36503     -503.54078      137.58802     -499.5036       12.624302      12.624302      12.624302     -2617.3221      1015.6814      2014.4048    
     24100   325.46613     -637.11454     -513.90515     -159.58134     -518.57946      12.61692       12.61692       12.61692      -1986.8598     -1274.926       2783.0418    
     24200   303.51661     -636.73992     -521.8398      -297.1788      -530.5179       12.604056      12.604056      12.604056      80.848263     -497.35092     -475.03373    
     24300   306.34712     -637.0738      -521.10215     -429.22464     -533.60451      12.593424      12.593424      12.593424      736.5983      -3335.2059      1310.9337    
     24400   305.96088     -633.20978     -517.38435     -2057.6795     -577.08244      12.576765      12.576765      12.576765      216.57447     -2425.3767     -3964.2362    
     24500   299.03444     -622.91338     -509.71005      3869.5082     -398.32196      12.54399       12.54399       12.54399       1964.4356      7243.9834      2400.1055    
     24600   323.84834     -609.99907     -487.40211      3211.9276     -393.91184      12.59046       12.59046       12.59046       2697.2457      3746.385       3192.152     
     24700   293.99293     -598.47773     -487.18292      1644.3349     -437.86814      12.71658       12.71658       12.71658       1890.8267      2316.4848      725.69312    
     24800   306.8408      -606.77771     -490.61918     -1513.7203     -537.63342      12.865776      12.865776      12.865776     -2200.2084     -1424.5617     -916.39086    
     24900   271.9582      -604.67368     -501.7204      -1341.4152     -544.23711      12.953094      12.953094      12.953094     -1507.636      -587.4576      -1929.1521    
     25000   271.89433     -605.08437     -502.15527     -1422.5217     -547.50892      12.978539      12.978539      12.978539     -2257.6784     -632.11382     -1377.7727    
     25100   289.74038     -606.12186     -496.43691     -2395.2471     -572.23697      12.946363      12.946363      12.946363     -2341.9557     -253.37919     -4590.4066    
     25200   266.17419     -598.09182     -497.32815     -325.7503      -507.3578       12.828476      12.828476      12.828476     -1348.1836      1118.407      -747.47433    
     25300   323.80961     -613.47355     -490.89125     -54.606505     -492.51641      12.684065      12.684065      12.684065      1175.426      -2518.6477      1179.4022    
     25400   330.53108     -629.00175     -503.87495      4064.064      -385.99621      12.575725      12.575725      12.575725      2934.1479      3934.4066      5323.6376    
     25500   278.18471     -631.89608     -526.58568      1155.2186     -493.30869      12.546848      12.546848      12.546848     -119.9498       2451.0124      1134.5931    
     25600   305.00677     -638.27756     -522.81332     -805.63908     -546.05291      12.552706      12.552706      12.552706     -785.14243     -201.93125     -1429.8436    
     25700   304.41629     -633.02801     -517.78731     -425.98389     -530.1312       12.571709      12.571709      12.571709     -1199.6492      3432.3166     -3510.6191    
     25800   308.65166     -624.37853     -507.53447      549.65358     -491.51734      12.595244      12.595244      12.595244     -3446.7732      2613.4492      2482.2847    
     25900   324.42024     -621.20274     -498.38928      1467.1988     -455.20104      12.637666      12.637666      12.637666     -1797.8112      2018.7285      4180.679     
     26000   264.82923     -616.80346     -516.54894     -55.457623     -518.2055       12.699587      12.699587      12.699587     -2909.8008      4119.447      -1376.0191    
     26100   283.69088     -625.93636     -518.54152     -1178.9938     -554.20153      12.752579      12.752579      12.752579     -2052.2354     -247.63154     -1237.1146    
     26200   298.61247     -624.01722     -510.97362     -1186.8266     -547.07933      12.777256      12.777256      12.777256     -247.49988     -1569.6708     -1743.309     
     26300   312.57233     -614.76126     -496.43298     -1296.1661     -535.85399      12.776063      12.776063      12.776063     -2492.1614      244.17313     -1640.5101    
     26400   307.5294      -608.48949     -492.07027      911.76519     -464.43608      12.761331      12.761331      12.761331     -2473.5012      2561.4478      2647.3489    
     26500   294.59624     -612.14923     -500.62603      62.967499     -498.72133      12.752976      12.752976      12.752976      1161.121      -386.74926     -585.4692     
     26600   313.2518      -623.67532     -505.08981      558.1805      -488.18198      12.758878      12.758878      12.758878      1902.7916     -1548.8968      1320.6467    
     26700   283.04496     -624.71384     -517.56353     -983.97355     -547.47499      12.773977      12.773977      12.773977     -955.23996     -2993.0106      996.32988    
     26800   297.23948     -621.00942     -508.48559     -1159.6354     -543.57273      12.754112      12.754112      12.754112     -1224.1822      381.60133     -2636.3253    
     26900   310.17837     -618.57948     -501.15746      4.3487223     -501.02821      12.678352      12.678352      12.678352     -252.27823      671.21789     -405.89349    
     27000   296.04569     -617.08578     -505.01388     -919.39957     -531.67561      12.574847      12.574847      12.574847     -2371.5733     -733.60271      346.97736    
     27100   315.83146     -630.43808     -510.87601      2041.4959     -453.29202      12.459266      12.459266      12.459266      3127.9766     -330.47331      3326.9844    
     27200   305.33393     -635.04485     -519.45676      3377.4282     -424.84719      12.430569      12.430569      12.430569      3917.8222      1071.4271      5143.0354    
     27300   298.49017     -634.34848     -521.35118      682.56182     -501.95437      12.490241      12.490241      12.490241      1169.8076     -435.30687      1313.1847    
     27400   286.09387     -622.59928     -514.29476     -746.38145     -535.8882       12.564976      12.564976      12.564976     -1064.1386     -1897.7495      722.74384    
     27500   309.87146     -622.43561     -505.12977     -76.882342     -507.3887       12.629903      12.629903      12.629903     -1031.2875      1173.6545     -373.01395    
     27600   361.00064     -613.88356     -477.22212      1210.3939     -441.20695      12.683164      12.683164      12.683164      704.49207      2164.2314      762.45807    
     27700   326.73868     -595.39049     -471.69935     -2629.976      -551.10124      12.74484       12.74484       12.74484      -479.43596     -4169.1977     -3241.2943    
     27800   293.16324     -608.48911     -497.50839     -422.32121     -510.33003      12.768549      12.768549      12.768549     -105.31084     -1445.0232      283.37044    
     27900   277.24633     -603.54928     -498.59411     -1018.8279     -529.51306      12.766817      12.766817      12.766817      2564.9207     -3817.3693     -1804.0352    
     28000   312.31781     -618.70043     -500.4685       213.2887      -494.06681      12.719899      12.719899      12.719899      1976.2869     -1295.4116     -41.009233    
     28100   295.64898     -628.98629     -517.06456     -447.51141     -530.37355      12.681045      12.681045      12.681045     -2235.2164     -196.61511      1089.2973    
     28200   266.31571     -624.35322     -523.53598      448.03713     -510.29324      12.655016      12.655016      12.655016      1131.3631     -1194.1245      1406.8727    
     28300   302.73402     -645.48541     -530.88155     -1606.3005     -578.21322      12.642017      12.642017      12.642017     -654.97955     -3902.2256     -261.69651    
     28400   269.43105     -629.11072     -527.11413      732.42507     -505.66805      12.615456      12.615456      12.615456     -121.29006      2211.6193      106.94596    
     28500   314.62703     -633.68165     -514.57553     -1359.1062     -554.25036      12.602652      12.602652      12.602652     -715.35732     -2013.0272     -1348.934     
     28600   325.17787     -626.35617     -503.2559       1612.0357     -456.22024      12.600629      12.600629      12.600629      1445.785       2007.6544      1382.6678    
     28700   286.03538     -620.29081     -512.00844     -1067.182      -543.43261      12.639111      12.639111      12.639111     -1662.2105     -452.93848     -1086.3971    
     28800   304.24299     -624.69292     -509.51781     -19.37737      -510.09056      12.655026      12.655026      12.655026     -434.50695     -403.80323      780.17807    
     28900   279.39368     -618.21322     -512.44515      1941.5716     -455.0201       12.657775      12.657775      12.657775      2136.7071     -101.13364      3789.1414    
     29000   289.40461     -626.10324     -516.54539     -164.51477     -521.44096      12.683543      12.683543      12.683543      98.796396      171.91345     -764.25417    
     29100   302.06457     -640.39971     -526.04927     -912.44508     -553.27492      12.694976      12.694976      12.694976     -280.34687     -1125.1208     -1331.8676    
     29200   270.4263      -636.22127     -533.84791      606.91095     -515.74907      12.692582      12.692582      12.692582     -3713.8308      5438.1923      96.371314    
     29300   308.80405     -641.21523     -524.31348      1553.8668     -477.78367      12.710048      12.710048      12.710048      1661.4006      2624.5934      375.60647    
     29400   320.67145     -627.03597     -505.64166     -2821.6254     -591.05462      12.756049      12.756049      12.756049     -2602.5074     -1058.4589     -4803.9099    
     29500   307.23116     -621.42279     -505.11647     -450.51825     -518.7609       12.758188      12.758188      12.758188     -2299.9749      486.45926      461.96095    
     29600   286.43693     -602.27397     -493.83958      931.57518     -465.92047      12.713621      12.713621      12.713621      2172.4969      701.9891      -79.760467    
     29700   334.35395     -608.50586     -481.93186      1492.4226     -437.57102      12.678777      12.678777      12.678777      1020.7489      1906.3229      1550.1959    
     29800   287.95874     -615.06365     -506.05317     -620.98816     -524.50404      12.677081      12.677081      12.677081     -2053.8926      349.69221     -158.76413    
     29900   279.81928     -604.6192      -498.69001      760.17821     -476.17295      12.664075      12.664075      12.664075      2326.5889     -74.808601      28.754354    
     30000   290.4331      -607.56734     -497.62015      629.33872     -479.04633      12.64873       12.64873       12.64873      -1117.3464     -442.00018      3447.3627    
     30100   296.20671     -614.83557     -502.70271      123.52063     -499.04479      12.663083      12.663083      12.663083      1391.3976      1119.3209     -2140.1566    
     30200   299.17048     -622.99114     -509.7363       465.40982     -495.85626      12.692867      12.692867      12.692867      1286.8268      1298.3885     -1188.9859    
     30300   307.70536     -617.02121     -500.53539     -507.82624     -515.85149      12.74048       12.74048       12.74048       42.961972     -526.11687     -1040.3238    
     30400   307.50418     -598.91807     -482.5084      -277.86746     -490.98194      12.787444      12.787444      12.787444     -1361.786       2540.6778     -2012.4943    
     30500   334.88665     -601.0345      -474.25885      1071.1372     -441.19949      12.838801      12.838801      12.838801      1891.5056     -100.2833       1422.1893    
     30600   288.57089     -604.7792      -495.53697     -2860.0396     -584.77222      12.885348      12.885348      12.885348     -3666.545      -2346.3855     -2567.1883    
     30700   275.39132     -605.7994      -501.54647     -3496.485      -609.95616      12.858398      12.858398      12.858398     -4744.8317     -1669.1726     -4075.4507    
     30800   273.96905     -602.52143     -498.80692     -1038.7792     -530.18421      12.746925      12.746925      12.746925      321.27196     -271.68216     -3165.9273    
     30900   306.47517     -611.50216     -495.48204      3793.3875     -384.04566      12.629165      12.629165      12.629165      2820.0249      5931.7138      2628.4239    
     31000   341.9939      -613.39628     -483.93009      4610.2732     -349.30291      12.604048      12.604048      12.604048      5907.8843      6397.8194      1525.1158    
     31100   306.91611     -625.027       -508.83995     -28.992664     -509.70486      12.694131      12.694131      12.694131     -1139.6469      1010.3996      42.269372    
     31200   241.68273     -608.57278     -517.08067     -1782.2517     -571.3669       12.782474      12.782474      12.782474     -4480.8615      673.12794     -1539.0215    
     31300   301.36377     -618.91968     -504.83455     -2183.7902     -571.83521      12.813391      12.813391      12.813391      358.62673     -2391.4996     -4518.4976    
     31400   293.8575      -608.78617     -497.54263      256.30958     -489.72074      12.790582      12.790582      12.790582     -1226.2465      1204.3562      790.81902    
     31500   322.15144     -612.76018     -490.8056      -1925.5273     -549.09989      12.756557      12.756557      12.756557     -759.90993     -1780.6778     -3235.9941    
     31600   282.65224     -612.04125     -505.0396      -1535.6749     -550.54622      12.665815      12.665815      12.665815     -2798.3526     -898.89759     -909.77438    
     31700   279.6839      -632.30214     -526.42419      779.568       -503.95638      12.549035      12.549035      12.549035      1560.0438      1813.9031     -1035.2429    
     31800   266.68446     -631.53839     -530.58155     -44.952703     -531.84912      12.457951      12.457951      12.457951      846.31159      1075.4722     -2056.6419    
     31900   299.97133     -628.3645      -514.8065       1469.5313     -474.20783      12.373304      12.373304      12.373304      975.39799      3046.282       386.91379    
     32000   300.60749     -618.62959     -504.83075      4006.8327     -395.13931      12.33574       12.33574       12.33574       2196.0551      5933.8061      3890.6369    
     32100   338.41828     -635.59832     -507.48572      289.17108     -499.4897       12.376968      12.376968      12.376968      2523.0949     -1668.667       13.085302    
     32200   288.05415     -631.879       -522.83239     -1489.1547     -564.64167      12.439961      12.439961      12.439961     -1580.5557     -1229.6566     -1657.2519    
     32300   301.01124     -632.05632     -518.10464     -92.984175     -520.74529      12.487489      12.487489      12.487489      554.21873     -1822.1576      988.98635    
     32400   315.50895     -638.84089     -519.40091     -2367.7979     -587.11646      12.516684      12.516684      12.516684     -4770.2525      155.11635     -2488.2575    
     32500   285.84317     -630.32921     -522.11959      572.99593     -505.74514      12.513528      12.513528      12.513528      361.98451      1439.318      -82.314712    
     32600   268.32641     -620.30456     -518.72614     -207.27697     -524.6585       12.51988       12.51988       12.51988      -1605.5897      2265.77       -1282.0112    
     32700   289.66208     -615.7963      -506.14099      386.76723     -495.05991      12.524262      12.524262      12.524262      2238.5861     -555.92567     -522.35871    
     32800   280.84673     -602.60304     -496.28489      1012.5988     -467.22413      12.531351      12.531351      12.531351      1383.1583      85.65082       1568.9874    
     32900   310.54489     -603.94136     -486.3806       855.76668     -461.81856      12.53173       12.53173       12.53173       2630.0078     -1037.7664      975.05869    
     33000   314.77934     -600.53831     -481.37453     -451.17485     -494.3429       12.537806      12.537806      12.537806     -3174.3779      914.91425      905.93913    
     33100   283.08125     -617.0319      -509.86784      298.94547     -501.24167      12.554039      12.554039      12.554039     -1217.4801     -161.74609      2276.0626    
     33200   292.32257     -622.05265     -511.39018      54.728077     -509.79275      12.602153      12.602153      12.602153     -1634.5655     -695.78589      2494.5356    
     33300   278.19888     -610.25675     -504.94099     -85.609117     -507.47668      12.663893      12.663893      12.663893      954.567        1087.6643     -2299.0586    
     33400   309.11902     -613.47983     -496.45884      259.44996     -488.66881      12.721449      12.721449      12.721449     -792.59949      1759.014      -188.06462    
     33500   308.2786      -613.78586     -497.08303     -2292.5458     -566.54185      12.759819      12.759819      12.759819     -861.44022     -4594.6551     -1421.542     
     33600   306.76348     -631.94519     -515.81592     -1402.9502     -558.19567      12.747159      12.747159      12.747159     -2162.4004     -780.43259     -1266.0177    
     33700   283.28875     -631.90929     -524.66669     -202.2621      -530.72722      12.712766      12.712766      12.712766     -3638.883       3187.7856     -155.68896    
     33800   293.01669     -633.64822     -522.72298      2182.0905     -457.68445      12.690363      12.690363      12.690363      1348.3688      2820.9788      2376.9238    
     33900   299.14358     -632.8141      -519.56945     -612.60113     -537.87988      12.702278      12.702278      12.702278     -1713.9306     -964.52958      840.65684    
     34000   249.49556     -622.88518     -528.43543     -555.66512     -545.0831       12.712223      12.712223      12.712223     -1748.7995     -1705.3622      1787.1664    
     34100   271.16056     -627.66208     -525.01076     -725.07969     -546.69603      12.704797      12.704797      12.704797     -1429.1345     -739.70548     -6.3990727    
     34200   340.77376     -637.10542     -508.10112      2164.3062     -443.62261      12.688398      12.688398      12.688398      1186.145       3294.7008      2012.0729    
     34300   310.27526     -636.47072     -519.01203      569.8171      -501.85945      12.732274      12.732274      12.732274      3241.0319      182.43991     -1714.0205    
     34400   267.6951      -627.95303     -526.61361      272.88561     -518.27626      12.795495      12.795495      12.795495      1411.9509     -1774.5648      1181.2708    
     34500   301.00653     -635.57258     -521.62268     -909.60098     -549.81302      12.856552      12.856552      12.856552      905.04156     -2294.2436     -1339.6009    
     34600   332.81318     -626.17767     -500.18695     -1674.3063     -552.53886      12.894581      12.894581      12.894581     -1526.6607     -1900.7206     -1595.5377    
     34700   297.31657     -602.06163     -489.50861     -107.61193     -492.87037      12.890701      12.890701      12.890701      748.9631      -160.22694     -911.57194    
     34800   345.74715     -618.01398     -487.12694     -87.890917     -489.85868      12.868849      12.868849      12.868849      126.41004      103.39934     -493.48214    
     34900   273.96656     -607.9575      -504.24393      1612.4126     -454.6125       12.82729       12.82729       12.82729       686.24674      2432.7535      1718.2374    
     35000   281.74279     -624.02708     -517.36972      1037.2689     -485.73326      12.788126      12.788126      12.788126      1573.8191      319.0465       1218.9412    
     35100   300.00972     -641.04549     -527.47295     -345.64337     -537.96293      12.767039      12.767039      12.767039     -39.300934     -832.55859     -165.07059    
     35200   273.93212     -639.22794     -535.52741      1179.9833     -500.03308      12.729239      12.729239      12.729239      296.25811      2057.4209      1186.271     
     35300   281.5804      -634.30463     -527.70874      1799.09       -473.70978      12.719954      12.719954      12.719954      3530.7919      1791.107       75.371209    
     35400   312.38623     -626.51812     -508.26029      103.16428     -505.11167      12.791014      12.791014      12.791014      3195.0009     -185.12412     -2700.384     
     35500   300.08096     -612.80645     -499.20694     -821.20978     -524.79762      12.880042      12.880042      12.880042      3484.3068     -1510.2232     -4437.713     
     35600   322.66353     -633.60137     -511.45294     -483.65494     -526.69158      12.927412      12.927412      12.927412     -90.8939        1903.6156     -3263.6865    
     35700   306.27078     -628.28906     -512.34631     -580.6845      -530.71022      12.943439      12.943439      12.943439     -719.13516      1197.9667     -2220.885     
     35800   318.23193     -648.06246     -527.59167     -1533.3299     -576.06482      12.941857      12.941857      12.941857     -810.34803     -884.63902     -2905.0026    
     35900   296.89524     -647.33701     -534.94349      579.73823     -516.75599      12.908876      12.908876      12.908876      368.28802      3293.3118     -1922.3852    
     36000   311.42605     -649.36958     -531.47524     -490.66862     -546.83848      12.900491      12.900491      12.900491     -1231.2998     -45.244936     -195.46113    
     36100   305.07434     -630.51029     -515.02047     -610.09999     -534.11049      12.897628      12.897628      12.897628     -343.02365     -1217.9655     -269.31079    
     36200   291.50442     -614.76195     -504.4092      -233.42287     -511.67885      12.877495      12.877495      12.877495     -48.816659      353.77179     -1005.2237    
     36300   310.01125     -617.30879     -499.95004      826.52941     -474.4393       12.838952      12.838952      12.838952     -1863.7248      2616.5045      1726.8085    
     36400   308.65727     -631.18499     -514.33881      236.89219     -507.08835      12.803033      12.803033      12.803033     -3141.3476      2879.8086      972.21555    
     36500   276.49886     -635.34853     -530.67632     -1600.7015     -579.3805       12.777915      12.777915      12.777915     -2832.961      -525.2343      -1443.9092    
     36600   322.81999     -643.74094     -521.53328      1454.2143     -477.84985      12.723428      12.723428      12.723428      3217.989      -1802.57        2947.2239    
     36700   292.68784     -624.94899     -514.14824      1532.8441     -468.20822      12.713714      12.713714      12.713714      1583.4906      998.82961      2016.2122    
     36800   304.47291     -632.07314     -516.811       -1396.5323     -559.25483      12.773088      12.773088      12.773088     -910.9125       464.5665      -3743.2509    
     36900   327.69355     -641.13134     -517.07873      1442.1865     -472.81195      12.815244      12.815244      12.815244      1196.0285     -566.23774      3696.7688    
     37000   297.13277     -633.86966     -521.38623      1180.7479     -484.5706       12.882487      12.882487      12.882487     -159.97709      3225.5769      476.64388    
     37100   289.63732     -633.79419     -524.14825      725.96529     -500.98704      12.981449      12.981449      12.981449      837.36231     -153.3138       1493.8473    
     37200   286.20472     -627.83937     -519.49289     -1803.8024     -578.30713      13.075928      13.075928      13.075928     -2485.4349      226.61193     -3152.5842    
     37300   288.35728     -630.70841     -521.54704     -2770.0907     -612.31488      13.097469      13.097469      13.097469     -2944.4557     -2987.3614     -2378.4549    
     37400   285.77659     -631.47159     -523.28718     -1272.1741     -564.33133      13.029955      13.029955      13.029955      1.7087469     -2085.9452     -1732.286     
     37500   311.3986      -619.25943     -501.37548      839.51662     -474.93106      12.92636       12.92636       12.92636      -6.6290835      1098.1648      1427.0141    
     37600   331.7137      -626.46383     -500.88934      1377.2264     -458.2297       12.854208      12.854208      12.854208      1912.4812      1432.2372      786.96087    
     37700   303.46604     -628.77702     -513.89605     -300.47296     -523.19206      12.849071      12.849071      12.849071      1533.0396     -2056.5827     -377.8758     
     37800   289.99764     -635.52281     -525.74047      1496.2599     -479.39362      12.854221      12.854221      12.854221     -584.91829      538.27566      4535.4223    
     37900   284.868       -638.49923     -530.65878     -174.53666     -536.11215      12.891418      12.891418      12.891418     -4320.1728      1105.0685      2691.4943    
     38000   309.77724     -633.70233     -516.43216      1087.4867     -482.06645      12.940225      12.940225      12.940225     -1295.9135      4889.6456     -331.27207    
     38100   298.6243      -612.20193     -499.15386      33.829099     -498.06688      13.012229      13.012229      13.012229     -684.85148     -1157.4431      1943.7819    
     38200   292.76431     -602.57344     -491.74374      1030.3559     -458.13918      13.077108      13.077108      13.077108      1245.9231      636.2825       1208.862     
     38300   286.04755     -598.76655     -490.47957     -2435.7094     -571.58038      13.16764       13.16764       13.16764      -2173.8396     -4703.8742     -429.41452    
     38400   286.24973     -609.23538     -500.87186     -3207.16       -608.48271      13.201396      13.201396      13.201396     -3534.0454     -2767.1221     -3320.3127    
     38500   282.68469     -620.62331     -513.60938     -2578.5788     -598.54164      13.12015       13.12015       13.12015      -1870.7157     -1686.7504     -4178.2703    
     38600   255.36687     -621.70561     -525.03319      522.45908     -508.42124      12.96674       12.96674       12.96674       731.62039      1903.6811     -1067.9242    
     38700   317.13952     -630.78191     -510.72466      806.94787     -485.8983       12.825192      12.825192      12.825192     -479.29948      1280.104       1620.0391    
     38800   305.96948     -616.69554     -500.86686      1501.1214     -455.47497      12.751526      12.751526      12.751526      1555.8832      1539.4442      1408.0369    
     38900   325.36771     -618.94917     -495.77703      25.86319      -494.99594      12.746196      12.746196      12.746196     -427.69641      18.504927      486.78106    
     39000   323.09039     -638.37737     -516.06734      561.17655     -499.07044      12.758456      12.758456      12.758456      1457.2333      898.67352     -672.37714    
     39100   293.17673     -645.19425     -534.20842     -2421.5433     -607.84587      12.77547       12.77547       12.77547      -5021.8282     -2673.2458      430.44398    
     39200   305.67553     -645.10272     -529.38531     -1874.2302     -586.06745      12.752122      12.752122      12.752122     -2402.8899     -148.51439     -3071.2864    
     39300   306.8729      -634.08016     -517.90947      54.716348     -516.27491      12.699967      12.699967      12.699967      1063.8297      1036.0107     -1935.6914    
     39400   337.4532      -636.14995     -508.4027       2065.3728     -447.28429      12.659967      12.659967      12.659967     -1517.2527      4621.194       3092.177     
     39500   287.22271     -620.7304      -511.99854      1280.7035     -473.9187       12.680125      12.680125      12.680125      1344.1696      1524.0678      973.87301    
     39600   316.9502      -632.57595     -512.59037      964.89575     -483.6168       12.7218        12.7218        12.7218       -362.56444      1417.793       1839.4587    
     39700   290.43252     -630.53671     -520.58974      2448.3422     -446.05644      12.780096      12.780096      12.780096      3478.2189      2160.2919      1706.5157    
     39800   302.29849     -631.03884     -516.59985     -655.36597     -537.04317      12.884391      12.884391      12.884391      234.86005      907.91615     -3108.8741    
     39900   294.0968      -622.30699     -510.97286     -2246.0344     -582.27228      12.959789      12.959789      12.959789     -4510.9538     -1088.9239     -1138.2253    
     40000   291.36436     -617.39829     -507.09855      50.174546     -505.50422      12.964026      12.964026      12.964026     -1262.2169      2549.0184     -1136.2779    
     40100   305.74629     -606.19824     -490.45404     -13.277451     -490.87339      12.937765      12.937765      12.937765      387.25089     -450.89492      23.811672    
     40200   312.83298     -613.95924     -495.53229     -3073.3996     -591.73653      12.899309      12.899309      12.899309     -2005.0132     -2621.9673     -4593.2183    
     40300   315.76882     -631.8146      -512.27625      2075.5934     -449.03948      12.783521      12.783521      12.783521      1398.5803      40.803818      4787.3959    
     40400   311.99891     -646.05927     -527.94807      393.27168     -516.2032       12.698716      12.698716      12.698716     -491.03869      1024.2397      646.61405    
     40500   279.98441     -639.85127     -533.85956      2431.2768     -461.79145      12.667112      12.667112      12.667112      4206.7817      1658.8685      1428.1801    
     40600   286.75405     -642.16119     -533.60675      25.482157     -532.84853      12.683152      12.683152      12.683152      2720.1321     -2590.3982     -53.287424    
     40700   300.32171     -639.63029     -525.93964      727.54904     -504.25449      12.690383      12.690383      12.690383      607.22303     -1904.4063      3479.8303    
     40800   304.71727     -612.91064     -497.556        1225.822      -460.74847      12.721679      12.721679      12.721679      1909.5755      1121.0737      646.81682    
     40900   324.59397     -621.24566     -498.36643     -505.58773     -513.79548      12.79054       12.79054       12.79054      -2602.5474      196.26147      889.52275    
     41000   278.9684      -609.60418     -503.9971      -770.87713     -527.88192      12.855441      12.855441      12.855441     -1902.0183     -232.5832      -178.02989    
     41100   309.22443     -620.91056     -503.84967     -1157.0337     -539.92333      12.882181      12.882181      12.882181      39.819881     -1958.6464     -1552.2747    
     41200   335.52369     -617.63086     -490.61405     -628.39232     -510.208        12.882646      12.882646      12.882646     -1649.9796     -67.204075     -167.99329    
     41300   324.72941     -609.26145     -486.33095     -319.49084     -496.2863       12.87975       12.87975       12.87975      -600.90455     -221.78031     -135.78766    
     41400   329.90115     -611.77756     -486.88923     -1337.7276     -528.64157      12.88682       12.88682       12.88682      -3885.0581      592.12299     -720.24761    
     41500   278.69391     -618.03819     -512.53502     -62.216515     -514.47366      12.87969       12.87969       12.87969      -628.52213     -235.18579      677.05837    
     41600   293.42229     -630.51171     -519.43292      249.88176     -511.69363      12.853766      12.853766      12.853766      1773.8697      1489.1687     -2513.3931    
     41700   295.77533     -633.67587     -521.70631     -1778.3856     -576.41681      12.824968      12.824968      12.824968     -3921.5711     -1371.661      -41.924672    
     41800   327.58601     -639.90899     -515.89709     -453.21588     -529.64632      12.765342      12.765342      12.765342     -933.86682     -1493.3046      1067.5238    
     41900   326.57648     -630.89709     -507.26736      2463.8513     -433.33595      12.718802      12.718802      12.718802     -345.38611      5070.7991      2666.1409    
     42000   320.59917     -630.27613     -508.90919     -493.7997      -523.76595      12.73012       12.73012       12.73012       100.10407     -1761.8396      180.33639    
     42100   287.9834      -628.74676     -519.72694     -2197.9506     -586.46444      12.769054      12.769054      12.769054     -1951.23       -4288.0313     -354.59057    
     42200   283.5757      -640.12309     -532.77186     -1855.2853     -589.14456      12.772054      12.772054      12.772054     -2428.1855     -1234.7386     -1902.9318    
     42300   276.77018     -639.34575     -534.57083     -330.26336     -544.53023      12.739889      12.739889      12.739889     -1041.6811      557.67523     -506.78419    
     42400   317.51783     -642.00608     -521.80562      1998.4317     -461.99371      12.707911      12.707911      12.707911      4171.799       464.4583       1359.0379    
     42500   295.94556     -627.2814      -515.2474       629.23754     -496.42044      12.706614      12.706614      12.706614      1988.603      -1554.4382      1453.5478    
     42600   325.21677     -638.4444      -515.3294       2314.3277     -446.05488      12.708402      12.708402      12.708402      5449.9432      2006.3149     -513.27498    
     42700   283.02199     -636.32298     -529.18136     -751.4357      -551.99289      12.768177      12.768177      12.768177     -1076.2037     -860.14333     -317.96003    
     42800   252.0902      -629.79877     -534.36678     -1210.596      -571.60651      12.824599      12.824599      12.824599     -2254.7123      2220.4311     -3597.5069    
     42900   288.29401     -634.33742     -525.20001      375.67056     -513.58236      12.847297      12.847297      12.847297      347.96872      807.1007      -28.057752    
     43000   273.78769     -615.13048     -511.48462     -1282.5586     -551.35757      12.869897      12.869897      12.869897     -2015.2906      1633.8612     -3466.2465    
     43100   289.34009     -617.4129      -507.87948     -2531.9538     -586.26625      12.85199       12.85199       12.85199      -3203.8528     -3068.7207     -1323.288     
     43200   309.6399      -618.84287     -501.6247      -95.302675     -504.51905      12.769966      12.769966      12.769966     -578.8106       779.49972     -486.59714    
     43300   320.66553     -613.57302     -492.18096      2576.6205     -415.74842      12.670215      12.670215      12.670215      2712.4254      758.68079      4258.7554    
     43400   336.54345     -620.34326     -492.9404       3038.6093     -403.61871      12.631901      12.631901      12.631901      2904.2609      4320.6042      1890.9627    
     43500   280.30112     -622.43147     -516.31988      294.12392     -507.60209      12.666794      12.666794      12.666794     -316.42056      356.96282      841.82951    
     43600   300.64993     -624.58412     -510.76922     -1179.2011     -546.22931      12.727956      12.727956      12.727956     -2340.7947      147.67432     -1344.4828    
     43700   295.59374     -617.95447     -506.05365     -2453.5432     -580.63734      12.773937      12.773937      12.773937     -1561.9204     -3163.6419     -2635.0673    
     43800   275.27529     -614.21261     -510.00361     -780.93639     -533.66646      12.760231      12.760231      12.760231     -325.05222      1177.2039     -3194.9608    
     43900   293.70878     -609.57887     -498.39162      2970.4348     -409.52028      12.706383      12.706383      12.706383      5175.375       2940.543       795.38653    
     44000   339.58694     -620.17371     -491.61871      602.11647     -473.66767      12.691443      12.691443      12.691443      4357.8469      113.99104     -2665.4885    
     44100   317.86593     -624.54393     -504.21169     -650.34666     -523.63079      12.698023      12.698023      12.698023     -1323.5847      1593.1305     -2220.5857    
[...]
     91200   242.90112     -613.12874     -521.17539      48.135129     -519.78008      12.573176      12.573176      12.573176     -1602.3278      1799.9891     -53.255865    
     91300   300.95288     -624.1214      -510.19181     -4.5617672     -510.32318      12.545571      12.545571      12.545571      1763.4288     -490.64938     -1286.4647    
     91400   318.11688     -627.02514     -506.5979       282.81683     -498.51613      12.513391      12.513391      12.513391      956.59138      1261.8509     -1369.9918    
     91500   294.9122      -627.86647     -516.22366      1793.3783     -465.32333      12.485069      12.485069      12.485069      3314.1333      2964.9582     -898.95659    
     91600   300.12545     -632.28791     -518.67156      2933.2558     -435.57122      12.477445      12.477445      12.477445      2936.7854      5446.703       416.27901    
     91700   257.59863     -620.636       -523.11872      1216.9981     -488.25385      12.523933      12.523933      12.523933      1168.8348      3402.2197     -920.06028    
     91800   305.05412     -633.92587     -518.44371     -407.72563     -530.28369      12.580629      12.580629      12.580629      1878.9648     -199.48937     -2902.6524    
     91900   316.71699     -626.18079     -506.2835      -1501.4919     -550.42425      12.632237      12.632237      12.632237      596.61538     -166.81294     -4934.2781    
     92000   290.26791     -615.50095     -505.6163       59.234847     -503.86709      12.651125      12.651125      12.651125     -607.13983      832.62049     -47.776122    
     92100   300.88592     -619.06703     -505.16278      298.12689     -496.37939      12.641399      12.641399      12.641399      292.13734      973.24596     -371.00263    
     92200   284.86108     -627.77973     -519.9419      -604.78706     -537.66042      12.61778       12.61778       12.61778       940.80954      672.36485     -3427.5356    
     92300   301.00065     -640.12945     -526.18178     -429.59227     -538.64716      12.577408      12.577408      12.577408     -213.1738      -751.21825     -324.38477    
     92400   313.4776      -641.4353      -522.76432      1971.4681     -465.87469      12.554203      12.554203      12.554203      3074.1518      1774.1789      1066.0737    
     92500   294.63272     -639.90942     -528.37241      630.76373     -509.93641      12.60786       12.60786       12.60786       1880.4314     -307.31541      319.17519    
     92600   272.06523     -636.34282     -533.34902     -479.47907     -547.6573       12.695427      12.695427      12.695427      238.4304      -1330.4374     -346.43021    
     92700   313.06024     -637.60505     -519.09207     -2017.5054     -580.29571      12.765237      12.765237      12.765237     -761.53671     -2598.2874     -2692.6921    
     92800   294.95449     -614.32301     -502.66419      1451.0299     -458.16167      12.811818      12.811818      12.811818      1148.9694      1895.9779      1308.1422    
     92900   294.02674     -597.7613      -486.45369     -1027.6099     -518.33605      12.861218      12.861218      12.861218     -605.67674     -1904.7396     -572.41324    
     93000   306.02856     -600.99386     -485.14281     -2197.6425     -553.57299      12.87671       12.87671       12.87671      -2318.2622     -737.46792     -3537.1975    
     93100   350.64968     -614.16364     -481.42069     -1568.2569     -529.76078      12.833293      12.833293      12.833293      487.87769     -537.66836     -4654.98      
     93200   303.71327     -619.71569     -504.74112     -1538.3669     -551.26115      12.7517        12.7517        12.7517       -1858.0575      211.56243     -2968.6057    
     93300   271.85306     -625.99416     -523.08068      1336.1765     -483.60619      12.652964      12.652964      12.652964      1796.8337      4121.7535     -1910.0576    
     93400   294.49698     -635.68852     -524.2029      -580.95427     -541.10293      12.587995      12.587995      12.587995     -431.22755     -72.790941     -1238.8443    
     93500   307.45723     -632.27576     -515.88387      1695.9348     -467.08213      12.54248       12.54248       12.54248       967.75466      2642.7454      1477.3045    
     93600   298.62247     -623.70711     -510.65973      477.69331     -496.87591      12.553983      12.553983      12.553983     -69.721885      1769.2373     -266.43548    
     93700   305.1477      -624.63579     -509.1182       1159.3086     -475.44498      12.581619      12.581619      12.581619      3109.2346     -481.8859       850.57709    
     93800   307.43497     -631.15684     -514.77337      299.9376      -505.91644      12.651019      12.651019      12.651019      2057.7645     -1810.6135      652.66173    
     93900   266.64584     -625.19186     -524.24965     -1224.8519     -561.04439      12.723564      12.723564      12.723564     -295.14171      1753.2763     -5132.6901    
     94000   280.98087     -626.16463     -519.7957       99.957844     -516.77392      12.75038       12.75038       12.75038       1097.8285      1553.5672     -2351.5222    
     94100   318.10541     -628.23264     -507.80974      300.98326     -498.69176      12.759296      12.759296      12.759296     -1404.1977      2131.6925      175.45494    
     94200   325.8406      -616.81001     -493.45886     -19.244895     -494.04362      12.772144      12.772144      12.772144     -452.51157      2023.6023     -1628.8254    
     94300   324.08795     -616.89651     -494.20885     -1709.2763     -545.97366      12.757987      12.757987      12.757987     -1374.9792      96.969356     -3849.819     
     94400   272.92243     -617.69285     -514.37455     -1056.6561     -545.9195       12.697165      12.697165      12.697165     -3115.0745      1002.7463     -1057.6402    
     94500   305.43764     -631.11931     -515.49196      37.764628     -514.38655      12.614028      12.614028      12.614028     -1793.9068     -235.87199      2143.0726    
     94600   279.30486     -615.36737     -509.63292      434.06752     -497.17434      12.531751      12.531751      12.531751      939.55289      1923.0582     -1560.4086    
     94700   328.42837     -623.87175     -499.54096      2687.57       -423.44408      12.475092      12.475092      12.475092      3844.1941      2852.2673      1366.2485    
     94800   306.01353     -632.86967     -517.02431      936.17578     -490.51958      12.474699      12.474699      12.474699      92.945722      2852.0538     -136.47215    
     94900   262.56281     -630.34331     -530.94678     -1040.2083     -560.48243      12.48677       12.48677       12.48677      -2692.2635     -1527.2027      1098.8413    
     95000   332.40578     -654.4273      -528.59081      339.77845     -518.98758      12.467571      12.467571      12.467571      2135.5364     -575.25001     -540.95106    
     95100   293.81926     -655.03028     -543.80121      229.2091      -537.36361      12.441484      12.441484      12.441484     -471.84449     -254.32147      1413.7933    
     95200   276.71481     -651.35745     -546.6035       324.52976     -537.52097      12.426785      12.426785      12.426785      1832.5656      1711.1045     -2570.0809    
     95300   307.45798     -639.494       -523.10182     -671.7447      -541.94777      12.436915      12.436915      12.436915     -2094.0988      100.16909     -21.304403    
     95400   298.46759     -627.25207     -514.26332      68.41348      -512.34747      12.429339      12.429339      12.429339     -1034.6161      2160.3045     -920.44797    
     95500   287.70509     -619.27016     -510.35569      2206.8743     -449.05862      12.395444      12.395444      12.395444      1515.215       2226.0931      2879.3147    
     95600   336.12548     -633.8505      -506.60587      2523.1501     -436.45233      12.399673      12.399673      12.399673      2278.8377      5736.2343     -445.62182    
     95700   273.72968     -632.11053     -528.48664     -333.00724     -537.86573      12.453087      12.453087      12.453087     -580.36557      890.02989     -1308.686     
     95800   290.73649     -640.90924     -530.8472      -870.65286     -555.61483      12.494567      12.494567      12.494567      1032.3707     -349.53121     -3294.7981    
     95900   301.93296     -647.24656     -532.94595      362.57431     -522.57236      12.518493      12.518493      12.518493      847.39155      1326.9009     -1086.5695    
     96000   299.51311     -635.80213     -522.41758     -1413.563      -563.16813      12.550108      12.550108      12.550108     -2268.3031     -564.84615     -1407.5398    
     96100   309.72646     -613.36024     -496.1093      -2330.2796     -563.49177      12.562835      12.562835      12.562835     -2431.8437     -2503.8669     -2055.1283    
     96200   313.45204     -612.16806     -493.50675      231.86319     -486.8494       12.533273      12.533273      12.533273     -1123.5586      452.43729      1366.7109    
     96300   289.24015     -617.67311     -508.17753      963.67962     -480.73235      12.499304      12.499304      12.499304      1835.3808      1114.2226     -58.564541    
     96400   287.7939      -622.75369     -513.80561     -2509.548      -584.87757      12.476007      12.476007      12.476007     -606.05584     -3214.8092     -3707.7788    
     96500   300.35201     -625.45687     -511.75475      251.71356     -504.75083      12.40279       12.40279       12.40279       4139.2434     -1210.8007     -2173.302     
     96600   309.49953     -621.71111     -504.54608      4825.8363     -372.7339       12.326384      12.326384      12.326384      825.87743      7514.4141      6137.2175    
     96700   327.46969     -637.29423     -513.32636      2102.5733     -455.51221      12.353851      12.353851      12.353851      4972.5157     -2347.7853      3682.9896    
     96800   310.16863     -646.11674     -528.69841     -2743.9393     -605.65383      12.435491      12.435491      12.435491     -2452.2039     -2781.4491     -2998.1647    
     96900   283.68432     -638.42154     -531.02919      284.61426     -522.99235      12.463811      12.463811      12.463811      843.96172      217.93816     -208.05709    
     97000   288.83239     -629.83142     -520.4902       1747.3891     -470.84578      12.48921       12.48921       12.48921       3207.1708      571.95373      1463.0427    
     97100   316.08095     -628.49475     -508.83824     -428.84533     -521.14748      12.531939      12.531939      12.531939      1596.0983     -2765.8088     -116.82551    
     97200   331.83201     -633.29061     -507.67133     -1783.5656     -559.05437      12.547338      12.547338      12.547338     -858.96418     -1591.479      -2900.2536    
     97300   315.71917     -642.69002     -523.17046      1892.7032     -468.84399      12.531923      12.531923      12.531923      1951.8959      2887.4067      838.80706    
     97400   298.53183     -638.76685     -525.75378     -1493.5714     -568.85002      12.553914      12.553914      12.553914     -459.23529     -684.87983     -3336.5991    
     97500   280.46811     -628.45757     -522.28275      33.254815     -521.31522      12.588649      12.588649      12.588649      1005.1183      197.8595      -1103.2133    
     97600   312.85759     -626.78277     -508.34651      1310.1471     -469.98685      12.615165      12.615165      12.615165     -1128.1053      2641.4935      2417.0532    
     97700   342.02226     -614.33012     -484.85319      542.49844     -468.89267      12.635453      12.635453      12.635453      894.41371     -497.20826      1230.2899    
     97800   330.797       -615.53706     -490.3096       237.034       -483.29737      12.658719      12.658719      12.658719     -954.90892      2417.9161     -751.90523    
     97900   279.40948     -618.83765     -513.06359     -1009.0122     -543.19528      12.698441      12.698441      12.698441     -3566.9322      776.09992     -236.20432    
     98000   329.94407     -635.4915      -510.58693     -2516.7073     -585.8529       12.704669      12.704669      12.704669     -2638.3159     -4185.2006     -726.60545    
     98100   293.19985     -636.35437     -525.35979     -1032.7319     -555.74872      12.636223      12.636223      12.636223     -2285.7343      506.90544     -1319.3668    
     98200   317.84654     -646.80004     -526.47514      2607.0394     -451.31905      12.550092      12.550092      12.550092      2156.5044      5710.4108     -45.796896    
     98300   291.6569      -641.46778     -531.0573       832.9066      -507.23713      12.516731      12.516731      12.516731      1348.1699     -372.74752      1523.2975    
     98400   285.11714     -649.15985     -541.22509     -1298.5158     -578.35149      12.515646      12.515646      12.515646     -2104.8243      542.94834     -2333.6714    
     98500   279.43614     -636.84487     -531.06072      1058.5381     -500.93913      12.495832      12.495832      12.495832      1544.1675      423.44404      1208.0027    
     98600   261.83241     -611.61427     -512.49424      4232.0319     -391.71294      12.508108      12.508108      12.508108      2777.1502      5349.5676      4569.378     
     98700   330.77567     -632.16641     -506.94702      259.07444     -499.38108      12.60436       12.60436       12.60436       2440.0571     -1883.3155      220.48172    
     98800   290.97064     -624.65659     -514.5059      -1745.2617     -566.53995      12.691619      12.691619      12.691619     -398.41249     -428.0347      -4409.3379    
     98900   320.42107     -645.37482     -524.0753      -1085.2275     -556.61017      12.715032      12.715032      12.715032     -2129.4875     -71.27543      -1054.9195    
     99000   300.23099     -639.76787     -526.11156     -1522.5439     -571.65435      12.705487      12.705487      12.705487     -3172.8966      1422.632      -2817.3671    
     99100   286.43091     -640.09181     -531.6597      -1423.6165     -573.93027      12.674273      12.674273      12.674273     -4074.2006     -1914.8672      1718.2183    
     99200   309.33078     -637.59398     -520.49283      388.5511      -509.07925      12.628912      12.628912      12.628912     -784.41565      562.84388      1387.2251    
     99300   352.12386     -639.64739     -506.34636     -127.44904     -510.06843      12.604446      12.604446      12.604446     -1778.0448      4685.4456     -3289.7479    
     99400   318.21648     -638.40349     -517.93854      312.72666     -508.78295      12.614846      12.614846      12.614846      584.22835      2143.7022     -1789.7506    
     99500   284.35237     -630.52085     -522.8756       332.56752     -513.07157      12.643956      12.643956      12.643956     -1103.6272      3977.2845     -1875.9548    
     99600   296.95157     -628.55854     -516.1437       502.35044     -501.22198      12.6759        12.6759        12.6759        1045.0481     -845.85699      1307.8602    
     99700   335.68796     -623.3577      -496.2787       438.09184     -483.10846      12.72675       12.72675       12.72675       290.77966      1212.7533     -189.25743    
     99800   327.57163     -620.25461     -496.24815     -3607.9152     -605.74181      12.766904      12.766904      12.766904     -2068.6075     -3357.1286     -5398.0095    
     99900   301.48377     -625.88947     -511.75891     -2360.8176     -582.93754      12.739052      12.739052      12.739052     -1806.6424     -2794.4842     -2481.3261    
    100000   288.1455      -626.73461     -517.65342      388.33339     -506.24083      12.630908      12.630908      12.630908     -2133.0296      1442.6638      1855.366     
    100100   345.24372     -645.74719     -515.05073      1613.5389     -468.68295      12.536808      12.536808      12.536808      312.05146      3466.1294      1062.4358    
    100200   274.32983     -633.43698     -529.58589      419.20701     -517.55757      12.530456      12.530456      12.530456      1916.7203      642.81553     -1301.9148    
    100300   254.16497     -640.04398     -543.82656      2476.002      -472.23983      12.562283      12.562283      12.562283      437.25881      4202.3065      2788.4407    
    100400   248.8269      -648.47961     -554.28298      364.01332     -543.62859      12.613777      12.613777      12.613777     -196.08599      1618.6231     -330.49716    
    100500   279.24403     -650.91666     -545.20524     -1731.9783     -596.4594       12.660094      12.660094      12.660094     -2901.5851      411.29909     -2705.649     
    100600   291.1773      -631.42743     -521.19851     -1633.9193     -569.70641      12.673658      12.673658      12.673658     -2553.631      -133.23406     -2214.893     
    100700   308.18746     -632.50628     -515.83795     -236.64278     -522.84962      12.665358      12.665358      12.665358     -452.59525     -1478.1213      1220.7882    
    100800   347.41073     -635.92306     -504.40626     -122.57741     -508.03297      12.659275      12.659275      12.659275     -806.36877     -2072.4839      2511.1205    
    100900   325.19858     -623.8221      -500.71399     -418.35246     -513.10303      12.663096      12.663096      12.663096     -880.22868     -879.62668      504.79798    
    101000   274.79065     -621.23878     -517.21324     -1399.749      -558.61845      12.658327      12.658327      12.658327     -2422.0881     -1505.4885     -271.67038    
Loop time of 329.632 on 1 procs for 100000 steps with 192 atoms

Performance: 26.211 ns/day, 0.916 hours/ns, 303.369 timesteps/s
87.8% CPU use with 1 MPI tasks x 1 OpenMP threads

MPI task timing breakdown:
Section |  min time  |  avg time  |  max time  |%varavg| %total
---------------------------------------------------------------
Pair    | 168.15     | 168.15     | 168.15     |   0.0 | 51.01
Bond    | 0.15317    | 0.15317    | 0.15317    |   0.0 |  0.05
Kspace  | 32.953     | 32.953     | 32.953     |   0.0 | 10.00
Neigh   | 2.7446     | 2.7446     | 2.7446     |   0.0 |  0.83
Comm    | 3.5224     | 3.5224     | 3.5224     |   0.0 |  1.07
Output  | 0.11786    | 0.11786    | 0.11786    |   0.0 |  0.04
Modify  | 120.73     | 120.73     | 120.73     |   0.0 | 36.62
Other   |            | 1.27       |            |       |  0.39

Nlocal:            192 ave         192 max         192 min
Histogram: 1 0 0 0 0 0 0 0 0 0
Nghost:           4602 ave        4602 max        4602 min
Histogram: 1 0 0 0 0 0 0 0 0 0
Neighs:          65421 ave       65421 max       65421 min
Histogram: 1 0 0 0 0 0 0 0 0 0

Total # of neighbors = 65421
Ave neighs/atom = 340.73438
Ave special neighs/atom = 2
Neighbor list builds = 1166
Dangerous builds = 0

write_data  water2.data
System init for write_data ...
PPPM initialization ...
  using 12-bit tables for long-range coulomb (src/kspace.cpp:342)
  G vector (1/distance) = 0.31129549
  grid = 12 12 12
  stencil order = 5
  estimated absolute RMS force accuracy = 0.0019006615
  estimated relative force accuracy = 5.7237857e-06
  using double precision FFTW3
  3d grid and FFT values/proc = 6859 1728
Generated 0 of 1 mixed pair_coeff terms from geometric mixing rule
WARNING: Not all mixed pair coeffs generated from mixing. Use write_data with 'pair ij' option to store all pair coeffs. (src/write_data.cpp:309)
write_restart     water2.restart
System init for write_restart ...
PPPM initialization ...
  using 12-bit tables for long-range coulomb (src/kspace.cpp:342)
  G vector (1/distance) = 0.31129549
  grid = 12 12 12
  stencil order = 5
  estimated absolute RMS force accuracy = 0.0019006615
  estimated relative force accuracy = 5.7237857e-06
  using double precision FFTW3
  3d grid and FFT values/proc = 6859 1728
Generated 0 of 1 mixed pair_coeff terms from geometric mixing rule
Total wall time: 0:05:29
