LAMMPS (4 May 2022)
OMP_NUM_THREADS environment is not set. Defaulting to 1 thread. (src/comm.cpp:98)
  using 1 OpenMP thread(s) per MPI task
# spc water - 1=O, 2=H

read_restart    water1.restart
Reading restart file ...
  restart file = 4 May 2022, LAMMPS = 4 May 2022
  restoring atom style full from restart
  orthogonal box = (-0.65970232 -0.65970232 -0.65970232) to (22.359702 22.359702 22.359702)
  1 by 1 by 1 MPI processor grid
  restoring pair style lj/cut/coul/long from restart
  restoring bond style harmonic from restart
  restoring angle style harmonic from restart
  1029 atoms
  686 bonds
  343 angles
Finding 1-2 1-3 1-4 neighbors ...
  special bond factors lj:    0        0        0       
  special bond factors coul:  0        0        0       
     2 = max # of 1-2 neighbors
     1 = max # of 1-3 neighbors
     1 = max # of 1-4 neighbors
     2 = max # of special neighbors
  special bonds CPU = 0.001 seconds
  read_restart CPU = 0.005 seconds

kspace_style   pppm 1.0e-5

group oxygen type 1
343 atoms in group oxygen

#======================
neighbor        2.0 bin
neigh_modify    every 1 delay 1 check yes
#======================

#reset_timestep 0
timestep 1.0

fix            1 all shake 0.0001 20 0 b 1 a 1
       0 = # of size 2 clusters
       0 = # of size 3 clusters
       0 = # of size 4 clusters
     343 = # of frozen angles
  find clusters CPU = 0.001 seconds
fix            2 all npt temp 300.0 300.0 100.0 iso 1.0 1.0 1000.0
Resetting global fix info from restart file:
  fix style: npt, fix ID: 2
fix            3 all momentum 1 linear 1 1 1
fix	       xwall1 all wall/lj93 xlo EDGE 1.0 1.0 2.5 pbc yes
fix	       xwall2 all wall/lj93 xhi EDGE 1.0 1.0 2.5 pbc yes
fix	       ywall1 all wall/lj93 ylo EDGE 1.0 1.0 2.5 pbc yes
fix	       ywall2 all wall/lj93 yhi EDGE 1.0 1.0 2.5 pbc yes
fix	       zwall1 all wall/lj93 zlo EDGE 1.0 1.0 2.5 pbc yes
fix	       zwall2 all wall/lj93 zhi EDGE 1.0 1.0 2.5 pbc yes

compute	MSD oxygen msd com no
fix 4 oxygen ave/time 1 1 500 c_MSD[4] file ../spc7.msd

thermo 100
thermo_style custom step temp pe etotal press enthalpy lx ly lz pxx pyy pzz
thermo_modify flush yes


dump         2 all custom 1000 md2.lammpstrj id type x y z
#dump_modify  1 unwrap yes
run 100000
PPPM initialization ...
  using 12-bit tables for long-range coulomb (src/kspace.cpp:342)
  G vector (1/distance) = 0.30489539
  grid = 20 20 20
  stencil order = 5
  estimated absolute RMS force accuracy = 0.0026559091
  estimated relative force accuracy = 7.9981912e-06
  using double precision FFTW3
  3d grid and FFT values/proc = 19683 8000
Generated 0 of 1 mixed pair_coeff terms from geometric mixing rule
All restart file global fix info was re-assigned
Neighbor list info ...
  update every 1 steps, delay 1 steps, check yes
  max neighbors/atom: 2000, page size: 100000
  master list distance cutoff = 12
  ghost atom cutoff = 12
  binsize = 6, bins = 4 4 4
  1 neighbor lists, perpetual/occasional/extra = 1 0 0
  (1) pair lj/cut/coul/long, perpetual
      attributes: half, newton on
      pair build: half/bin/newton
      stencil: half/bin/3d
      bin: standard
Per MPI rank memory allocation (min/avg/max) = 12.63 | 12.63 | 12.63 Mbytes
   Step          Temp          PotEng         TotEng         Press         Enthalpy          Lx             Ly             Lz            Pxx            Pyy            Pzz      
      1000   308.94495     -3102.4264     -2471.6056     -5782.9489     -3500.3501      23.019405      23.019405      23.019405     -5599.78       -5197.1253     -6551.9413    
      1100   333.1144      -3080.8107     -2400.6395     -1895.3021     -2731.2841      22.870151      22.870151      22.870151     -2302.413      -1492.4136     -1891.0797    
      1200   324.12759     -3119.2827     -2457.4612     -1091.4184     -2643.9647      22.712938      22.712938      22.712938     -1474.2684     -537.97396     -1262.0128    
      1300   302.95285     -3193.3585     -2574.7728     -901.36096     -2725.8874      22.568911      22.568911      22.568911     -1085.2605     -1019.4009     -599.42151    
      1400   284.6447      -3244.4        -2663.1969     -798.17171     -2794.8649      22.447574      22.447574      22.447574     -735.87808     -1361.122      -297.51511    
      1500   288.88341     -3301.3151     -2711.4571     -476.66        -2789.0591      22.349237      22.349237      22.349237     -5.6344915     -604.81067     -819.53482    
      1600   293.54096     -3312.2719     -2712.9038     -889.12509     -2856.0978      22.268726      22.268726      22.268726     -1180.797      -657.15858     -829.41964    
      1700   310.7263      -3307.7704     -2673.3124     -335.5724      -2726.8398      22.197529      22.197529      22.197529     -189.40074     -190.30542     -627.01103    
      1800   298.58917     -3294.3662     -2684.6905      991.10911     -2527.6801      22.146765      22.146765      22.146765      662.51237      531.06567      1779.7493    
      1900   289.83475     -3316.9423     -2725.1418      577.64405     -2633.8945      22.125577      22.125577      22.125577     -145.85949      304.86201      1573.9296    
      2000   287.34543     -3327.8603     -2741.1427     -979.58778     -2895.7136      22.117509      22.117509      22.117509     -2186.7804     -102.13914     -649.84376    
      2100   306.56651     -3375.848      -2749.8837     -279.88064     -2793.816       22.078947      22.078947      22.078947      483.56537      354.56001     -1677.7673    
      2200   304.87714     -3376.4579     -2753.943       165.374       -2728.1499      22.032002      22.032002      22.032002      158.29973      551.58556     -213.76328    
      2300   283.63146     -3339.8769     -2760.7427      432.95453     -2693.5427      21.996333      21.996333      21.996333      35.837834      502.65309      760.37267    
      2400   308.10574     -3362.7323     -2733.6251      223.56517     -2699.0282      21.974495      21.974495      21.974495     -405.48836      1521.3021     -445.11821    
      2500   304.6753      -3359.3721     -2737.2693      816.20735     -2610.9236      21.976644      21.976644      21.976644      933.07819      1123.5104      392.0334     
      2600   301.15057     -3371.8255     -2756.9197      165.62476     -2731.1737      22.007432      22.007432      22.007432      122.37949      544.34342     -169.84864    
      2700   282.71028     -3360.2046     -2782.9512      263.81301     -2741.7511      22.04154       22.04154       22.04154       901.86815     -765.62065      655.19153    
      2800   291.05177     -3354.9147     -2760.6292     -832.00546     -2890.8806      22.059384      22.059384      22.059384     -272.4103      -706.12911     -1517.477     
      2900   309.71486     -3358.4169     -2726.0241     -264.19752     -2767.2533      22.036029      22.036029      22.036029     -615.0168      -112.47614     -65.09962     
      3000   304.855       -3339.4796     -2717.0099      836.98994     -2586.7899      22.01374       22.01374       22.01374      -48.131378      1388.8023      1170.2989    
      3100   297.3083      -3331.4076     -2724.3472     -6.7715781     -2725.4008      22.014111      22.014111      22.014111      497.59183     -508.63103     -9.2755286    
      3200   308.61825     -3343.8621     -2713.7084      295.49714     -2667.5853      22.037544      22.037544      22.037544      845.70343      328.3255      -287.53752    
      3300   301.7762      -3324.0711     -2707.8879      250.54755     -2668.5822      22.074785      22.074785      22.074785     -333.58857      673.24237      411.98886    
      3400   303.42449     -3350.7003     -2731.1515     -823.81926     -2860.9241      22.10506       22.10506       22.10506      -704.55852     -1582.6168     -184.2825     
      3500   284.39933     -3320.4362     -2739.734       77.08287      -2727.602       22.098646      22.098646      22.098646     -734.2873       1345.758      -380.22204    
      3600   301.82778     -3331.3066     -2715.0181      71.596742     -2703.7836      22.07638       22.07638       22.07638       66.119747     -51.255794      199.92627    
      3700   314.39477     -3337.1978     -2695.2493      21.133374     -2691.937       22.06794       22.06794       22.06794      -408.00147      530.69073     -59.289135    
      3800   301.82615     -3330.0123     -2713.7271     -600.09458     -2807.8827      22.075819      22.075819      22.075819     -97.971888     -1533.7403     -168.57151    
      3900   306.7971      -3372.5846     -2746.1494     -452.08326     -2816.9728      22.064499      22.064499      22.064499     -343.73858     -791.18447     -221.32674    
      4000   281.38565     -3371.4308     -2796.8821     -80.827601     -2809.5103      22.044618      22.044618      22.044618      1687.8951     -1215.5619     -714.81602    
      4100   291.57034     -3389.6177     -2794.2734      279.48445     -2750.7692      22.017379      22.017379      22.017379      350.70929     -39.414084      527.15816    
      4200   300.51774     -3382.1937     -2768.5801      305.56415     -2721.1568      21.995704      21.995704      21.995704     -125.44398      2170.7887     -1128.6522    
      4300   310.67384     -3373.2893     -2738.9384      568.60312     -2650.6444      21.999633      21.999633      21.999633      1422.8171     -593.63367      876.62589    
      4400   308.6451      -3381.0062     -2750.7977      194.03257     -2720.5294      22.033274      22.033274      22.033274      1558.4117     -669.9187      -306.39525    
      4500   304.05838     -3370.0973     -2749.2542     -214.02598     -2782.8113      22.070574      22.070574      22.070574     -264.36895      121.52704     -499.23601    
      4600   299.63508     -3371.5682     -2759.7568     -284.52963     -2804.5738      22.104448      22.104448      22.104448      174.13794     -694.25446     -333.47236    
      4700   296.66562     -3379.9126     -2774.1644     -1297.7804     -2978.5019      22.101596      22.101596      22.101596     -701.18962     -1284.6008     -1907.5507    
      4800   297.04462     -3363.1015     -2756.5795      417.86441     -2691.2167      22.053282      22.053282      22.053282      609.70769     -528.00884      1171.8944    
      4900   325.5017      -3384.988      -2720.3608     -319.7963      -2770.1991      22.026129      22.026129      22.026129     -93.158809     -922.48373      56.253648    
      5000   308.10253     -3356.9768     -2727.8761      216.5172      -2694.0938      22.034693      22.034693      22.034693      94.851946     -577.43226      1132.1319    
      5100   296.39737     -3361.1955     -2755.9951      126.51984     -2736.2056      22.052961      22.052961      22.052961     -466.75212      789.59706      56.714566    
      5200   288.57582     -3374.5183     -2785.2883      575.81733     -2694.9729      22.073291      22.073291      22.073291     -323.06614      1581.8725      468.64557    
      5300   298.60686     -3381.7768     -2772.0649     -422.06749     -2838.4728      22.096357      22.096357      22.096357     -162.81225     -1177.5951      74.204854    
      5400   291.81856     -3367.2231     -2771.372       320.19547     -2721.0515      22.087727      22.087727      22.087727     -395.94006      1600.99       -244.46357    
      5500   304.5576      -3377.5502     -2755.6878     -428.80519     -2823.0203      22.08155       22.08155       22.08155      -640.71274      714.52175     -1360.2246    
      5600   302.34023     -3359.5632     -2742.2283      416.46094     -2677.0329      22.059161      22.059161      22.059161      7.7924043      1478.0457     -236.45524    
      5700   310.57396     -3367.5923     -2733.4454      643.2304      -2632.9016      22.048083      22.048083      22.048083      259.9422       1763.6646     -93.915632    
      5800   295.275       -3355.3854     -2752.4767      303.76939     -2704.8489      22.070573      22.070573      22.070573     -502.81895      1679.5293     -265.40215    
      5900   301.41704     -3349.9333     -2734.4834     -402.10952     -2797.8826      22.111649      22.111649      22.111649     -393.43758     -420.36158     -392.5294     
      6000   304.43595     -3329.073      -2707.459      -101.83486     -2723.5462      22.125979      22.125979      22.125979     -297.95928      511.04763     -518.59292    
      6100   314.69816     -3341.343      -2698.775      -349.78128     -2754.1053      22.13588       22.13588       22.13588      -784.06841     -83.691382     -181.58404    
      6200   290.53455     -3317.3393     -2724.1099     -1450.4497     -2953.9993      22.150327      22.150327      22.150327     -1913.9642     -2176.8698     -260.51499    
      6300   291.07047     -3334.2482     -2739.9245      430.66149     -2671.8383      22.131754      22.131754      22.131754      785.47881      365.23157      141.27407    
      6400   309.51241     -3353.7515     -2721.7721      598.54375     -2627.3226      22.117837      22.117837      22.117837      70.188909      450.61518      1274.8272    
      6500   299.6233      -3343.3225     -2731.5352     -1507.555      -2969.7753      22.128669      22.128669      22.128669     -1278.2826     -1229.1956     -2015.1869    
      6600   287.82648     -3325.6463     -2737.9464      11.829358     -2736.0867      22.090093      22.090093      22.090093     -1425.3427      222.07325      1238.7576    
      6700   312.76523     -3341.7074     -2703.0862      718.34104     -2590.9318      22.039578      22.039578      22.039578     -645.14084      2209.0095      591.15444    
      6800   312.01396     -3334.9748     -2697.8876      328.41406     -2646.6617      22.032519      22.032519      22.032519     -119.33253      198.401        906.17371    
      6900   301.13441     -3348.6492     -2733.7765     -232.45991     -2770.1781      22.061373      22.061373      22.061373     -1668.3548      163.04996      807.92512    
      7000   290.61011     -3357.3342     -2763.9506     -130.40555     -2784.4527      22.090677      22.090677      22.090677     -515.67615     -353.40484      477.86433    
      7100   296.07293     -3390.7331     -2786.1951      299.58438     -2739.0132      22.103448      22.103448      22.103448     -475.09874      430.33972      943.51216    
      7200   308.61485     -3437.1219     -2806.9751     -1100.7017     -2980.5772      22.114127      22.114127      22.114127     -672.10152     -597.45566     -2032.5479    
      7300   288.52423     -3422.6272     -2833.5026      543.74731     -2748.0019      22.091854      22.091854      22.091854      2012.9991     -537.96442      156.20728    
      7400   303.05058     -3436.915      -2818.1297      537.37291     -2733.7179      22.084313      22.084313      22.084313      1544.8109     -75.298272      142.60607    
      7500   296.27869     -3419.252      -2814.2939     -636.19879     -2914.5419      22.107294      22.107294      22.107294      384.17635     -1379.2574     -913.51528    
      7600   289.47603     -3399.5129     -2808.4449     -673.92595     -2914.4696      22.09563       22.09563       22.09563       926.32371     -1274.3001     -1673.8015    
      7700   290.69677     -3379.6353     -2786.0747      416.24586     -2721.1626      22.030951      22.030951      22.030951      5.3184279      750.97314      492.44601    
      7800   297.1698      -3362.9016     -2756.124       1331.6335     -2549.8332      21.982299      21.982299      21.982299      855.46338      1124.993       2014.444     
      7900   304.29626     -3382.8646     -2761.5358      982.75652     -2609.3576      21.979116      21.979116      21.979116      2096.3565      248.84044      603.0726     
      8000   300.25642     -3375.2293     -2762.1492      218.2497      -2728.2203      22.007973      22.007973      22.007973      1427.4588     -636.23401     -136.47569    
      8100   308.04306     -3397.9964     -2769.0172      441.01797     -2700.0908      22.047085      22.047085      22.047085      1325.639       247.63436     -250.21943    
      8200   290.91321     -3399.06       -2805.0574      254.3381      -2765.0267      22.09881       22.09881       22.09881       1067.2589     -73.199416     -231.04521    
      8300   280.39249     -3378.4439     -2805.9232      435.65887     -2736.5707      22.182639      22.182639      22.182639      556.39467      432.1357       318.44624    
      8400   277.36087     -3345.6902     -2779.3595     -1120.099      -2959.7223      22.267503      22.267503      22.267503     -1403.9687     -513.66148     -1442.6669    
      8500   283.52106     -3313.5027     -2734.5939     -1159.9743     -2921.8185      22.285013      22.285013      22.285013     -688.48023     -711.44919     -2079.9935    
      8600   294.06697     -3297.0676     -2696.6255     -840.22559     -2831.1352      22.224256      22.224256      22.224256     -796.89951     -872.52581     -851.25144    
      8700   318.81455     -3322.2755     -2671.3024      1104.5787     -2496.5051      22.138802      22.138802      22.138802      1482.0991      728.55884      1103.078     
      8800   319.71239     -3365.2145     -2712.4082      1060.6588     -2545.0043      22.119299      22.119299      22.119299      857.64673      519.76515      1804.5646    
      8900   312.66346     -3389.1678     -2750.7544     -539.35024     -2836.1944      22.146487      22.146487      22.146487     -426.41185     -523.823       -667.81588    
      9000   285.03115     -3361.4401     -2779.4479      679.75043     -2671.4027      22.17141       22.17141       22.17141       1143.5412      747.23347      148.47659    
      9100   306.56075     -3372.4725     -2746.52        1053.0642     -2578.0546      22.219108      22.219108      22.219108      759.51816      180.15931      2219.5152    
      9200   307.15423     -3342.2088     -2715.0444      181.97637     -2685.6259      22.296845      22.296845      22.296845      1775.8773      155.29777     -1385.246     
      9300   303.67878     -3351.3829     -2731.3149     -1402.84       -2960.595       22.378317      22.378317      22.378317     -1853.148      -553.7366      -1801.6353    
      9400   287.7184      -3337.3718     -2749.8926     -2843.597      -3215.65        22.394359      22.394359      22.394359     -1873.0877     -3356.0896     -3301.6136    
      9500   296.02374     -3339.6444     -2735.2069     -530.79078     -2821.0612      22.300826      22.300826      22.300826     -420.08914      436.46596     -1608.7492    
      9600   297.31669     -3325.2168     -2718.1393      699.25752     -2606.7674      22.186436      22.186436      22.186436      1616.1983      319.92538      161.6489     
      9700   313.80239     -3366.2129     -2725.4739      969.50699     -2572.3635      22.123779      22.123779      22.123779      2117.0432      997.72683     -206.24903    
      9800   296.24684     -3366.7515     -2761.8585     -192.07157     -2792.1245      22.10745       22.10745       22.10745      -401.61998     -88.969994     -85.624743    
      9900   297.0684      -3392.9093     -2786.3388      1065.9608     -2618.8318      22.087093      22.087093      22.087093      2131.2016      980.41039      86.270309    
     10000   298.93494     -3388.9555     -2778.5737     -555.72406     -2865.9298      22.089507      22.089507      22.089507     -775.35754      359.44903     -1251.2637    
     10100   293.72028     -3364.1497     -2764.4155     -488.17105     -2841.0113      22.075932      22.075932      22.075932      724.31017     -203.16303     -1985.6603    
     10200   294.02925     -3362.3764     -2762.0113      478.02719     -2687.324       22.044799      22.044799      22.044799      2355.3019     -238.86088     -682.35946    
     10300   310.76822     -3390.6536     -2756.11        16.419515     -2753.5539      22.018152      22.018152      22.018152      583.71779     -40.712097     -493.74715    
     10400   300.17423     -3382.3193     -2769.407      -33.539212     -2774.6119      21.995154      21.995154      21.995154      467.49099      29.39641      -597.50503    
     10500   312.45896     -3424.6342     -2786.6383      28.554555     -2782.218       21.976907      21.976907      21.976907     -864.27695      180.64706      769.29355    
     10600   294.88713     -3425.1666     -2823.0498      213.77594     -2789.9836      21.97101       21.97101       21.97101       945.14166      585.5202      -889.33404    
     10700   293.86389     -3437.132      -2837.1045      347.21226     -2783.3277      21.980697      21.980697      21.980697      1075.8471      1015.9267     -1050.137     
     10800   296.77128     -3437.7749     -2831.811      -155.00739     -2855.9299      22.014537      22.014537      22.014537      995.30895     -813.95041     -646.38071    
     10900   299.63388     -3410.5319     -2798.723      -949.18779     -2946.8639      22.036822      22.036822      22.036822     -906.35608     -1165.1757     -776.03159    
     11000   313.34485     -3403.8461     -2764.0414      868.43415     -2628.4904      22.03755       22.03755       22.03755       264.53278      1377.821       962.94862    
     11100   307.12258     -3395.5817     -2768.482      -21.393648     -2771.8459      22.091566      22.091566      22.091566      927.70478      383.46412     -1375.3498    
     11200   294.24851     -3390.1649     -2789.3521     -981.10604     -2944.4991      22.133519      22.133519      22.133519     -326.97075     -905.70589     -1710.6415    
     11300   299.20935     -3406.8047     -2795.8626      156.56586     -2771.1295      22.125972      22.125972      22.125972      1039.815       25.703268     -595.82066    
     11400   321.92164     -3415.9732     -2758.6559      36.978131     -2752.8307      22.105381      22.105381      22.105381      886.30625     -496.00636     -279.36549    
     11500   322.11546     -3405.4843     -2747.7712     -157.52425     -2772.5639      22.098682      22.098682      22.098682      686.09203     -77.222373     -1081.4424    
     11600   310.74341     -3435.5851     -2801.0922     -846.79821     -2934.4561      22.103492      22.103492      22.103492     -691.36543     -202.40344     -1646.6258    
     11700   302.88785     -3433.9029     -2815.4499     -355.53096     -2871.367       22.09346       22.09346       22.09346       250.17971     -437.95326     -878.81934    
     11800   301.18587     -3436.3498     -2821.372      -531.16647     -2904.6085      22.066617      22.066617      22.066617     -1250.8527      307.27088     -649.91755    
     11900   306.84528     -3430.4083     -2803.8747      83.566562     -2790.8374      22.034022      22.034022      22.034022      794.81987      523.52504     -1067.6452    
     12000   299.56433     -3394.2318     -2782.565       543.31197     -2697.9286      22.023039      22.023039      22.023039      1079.787       930.89018     -380.74133    
     12100   316.66303     -3393.695      -2747.115      -539.51546     -2831.148       22.021998      22.021998      22.021998      47.202209     -761.31038     -904.43823    
     12200   315.0015      -3399.3325     -2756.1451      1045.1413     -2593.3315      22.023179      22.023179      22.023179      1207.0027      528.11459      1400.3064    
     12300   299.68407     -3421.8602     -2809.9488     -181.4316      -2838.3709      22.064256      22.064256      22.064256      145.44052     -2044.9899      1355.2545    
     12400   293.75025     -3413.5205     -2813.7251      137.65239     -2792.0872      22.089478      22.089478      22.089478      1345.3342     -201.77054     -730.60643    
     12500   302.25659     -3393.0059     -2775.8418      906.3828      -2632.6636      22.125673      22.125673      22.125673      128.34369      1047.2901      1543.5146    
     12600   308.79565     -3370.5299     -2740.014      -612.63427     -2837.7327      22.1973        22.1973        22.1973       -478.13597     -931.6606      -428.10625    
     12700   312.18283     -3386.8011     -2749.3691     -624.11437     -2849.7663      22.260105      22.260105      22.260105      517.9329      -1755.0717     -635.20435    
     12800   302.61636     -3395.2877     -2777.389      -1435.6874     -3009.2151      22.288226      22.288226      22.288226     -1765.0012     -350.88714     -2191.1739    
     12900   294.09996     -3373.8715     -2773.3621     -702.63755     -2886.1935      22.247144      22.247144      22.247144     -282.83371     -1425.3618     -399.71711    
     13000   299.16326     -3377.3415     -2766.4935      360.74777     -2709.1299      22.174427      22.174427      22.174427      1436.5802      518.87095     -873.20785    
     13100   322.08672     -3407.2643     -2749.61       -136.03543     -2771.0933      22.123717      22.123717      22.123717     -128.83019     -380.80084      101.52473    
     13200   310.88426     -3380.715      -2745.9345      497.259       -2667.7192      22.094167      22.094167      22.094167      63.654612      379.63082      1048.4916    
     13300   282.54092     -3389.6602     -2812.7527     -358.35043     -2869.0633      22.086939      22.086939      22.086939      203.77167     -1470.8928      192.06981    
     13400   293.61347     -3416.7645     -2817.2484     -614.5171      -2913.5378      22.065959      22.065959      22.065959      574.27661     -491.64409     -1926.1838    
     13500   290.9886      -3387.2628     -2793.1063     -131.06482     -2813.5498      22.032547      22.032547      22.032547     -106.05585      259.0061      -546.1447     
     13600   315.20473     -3401.753      -2758.1507      48.726206     -2750.5755      22.008292      22.008292      22.008292      2.0134925     -304.93649      449.10161    
     13700   290.6656      -3365.6579     -2772.1609      535.76622     -2688.8813      22.007078      22.007078      22.007078      1209.491       79.103553      318.70406    
     13800   308.87744     -3396.6237     -2765.9408      457.95503     -2694.5227      22.031113      22.031113      22.031113      770.07055     -577.50774      1181.3023    
     13900   297.51704     -3383.6024     -2776.1157     -751.70732     -2894.0288      22.0739        22.0739        22.0739       -703.34546     -1007.141      -544.63549    
     14000   298.78009     -3415.2691     -2805.2035     -119.8302      -2824.0123      22.078686      22.078686      22.078686     -902.97489     -604.52586      1148.0102    
     14100   284.22393     -3405.8699     -2825.5258      151.89651     -2801.7224      22.066758      22.066758      22.066758      1698.6275     -124.75687     -1118.181     
     14200   298.15359     -3435.2088     -2826.4225      148.94318     -2803.095       22.062607      22.062607      22.062607     -1148.3118      235.05998      1360.0813    
     14300   301.66501     -3416.3236     -2800.3674      874.76001     -2663.0142      22.081302      22.081302      22.081302      732.60264      590.75272      1300.9247    
     14400   309.90327     -3390.3321     -2757.5546      464.74601     -2684.0005      22.139701      22.139701      22.139701      1474.3178     -428.63767      348.55793    
     14500   305.44428     -3352.3944     -2728.7215      105.83425     -2711.7909      22.21897       22.21897       22.21897       1839.0425     -1118.1551     -403.38468    
     14600   316.45124     -3359.7139     -2713.5664     -667.94721     -2821.548       22.29687       22.29687       22.29687      -345.46902     -1304.4566     -353.91598    
     14700   299.70501     -3350.9141     -2738.96       -440.71897     -2810.7329      22.351551      22.351551      22.351551      93.396499     -1419.1818      3.6283794    
     14800   303.52411     -3394.0151     -2774.263      -1290.7932     -2984.9668      22.369003      22.369003      22.369003     -1559.1906     -1430.3473     -882.84174    
     14900   289.69469     -3382.4263     -2790.9118     -609.70759     -2890.1107      22.344454      22.344454      22.344454     -918.86756      52.555564     -962.81078    
     15000   304.30967     -3379.5945     -2758.2383      564.08682     -2666.7484      22.321177      22.321177      22.321177      1070.6802      356.89068      264.68955    
     15100   307.54143     -3388.7198     -2760.7648     -766.90555     -2884.9793      22.310957      22.310957      22.310957      47.20999      -1568.1538     -779.77289    
     15200   300.76296     -3400.8147     -2786.7004     -240.35866     -2825.3877      22.264412      22.264412      22.264412     -198.65973     -282.86092     -239.55535    
     15300   296.51119     -3437.5578     -2832.1249      421.49757     -2764.7624      22.211735      22.211735      22.211735     -323.21716      419.54657      1168.1633    
     15400   301.46843     -3462.1109     -2846.5561     -239.60025     -2884.6366      22.170718      22.170718      22.170718     -650.98193     -504.84125      437.02244    
     15500   292.3769      -3420.4452     -2823.454       766.35761     -2702.1587      22.140061      22.140061      22.140061      797.6304       238.65813      1262.7843    
     15600   319.92729     -3438.324      -2785.0789     -171.95605     -2812.3592      22.157389      22.157389      22.157389     -334.35067      826.01803     -1007.5355    
     15700   306.46007     -3421.0298     -2795.2828     -640.57911     -2897.3457      22.189102      22.189102      22.189102     -1183.0935     -547.69845     -190.94545    
     15800   300.14128     -3414.9656     -2802.1207      510.33765     -2720.6112      22.207081      22.207081      22.207081      486.02491      419.35275      625.63529    
     15900   296.89771     -3396.6521     -2790.4301     -553.7106      -2879.2702      22.240783      22.240783      22.240783     -1450.6811     -311.25124      100.80057    
     16000   323.01698     -3416.074      -2756.5202     -1237.2782     -2955.4967      22.258003      22.258003      22.258003     -634.08369     -1001.1046     -2076.6461    
     16100   303.06446     -3379.5684     -2760.7547      432.85391     -2691.3821      22.232603      22.232603      22.232603      604.31062      422.11364      272.13747    
     16200   294.00559     -3376.7294     -2776.4126      31.654819     -2771.3537      22.211631      22.211631      22.211631      660.95084      83.724285     -649.71067    
     16300   294.81606     -3409.5992     -2807.6276     -173.16702     -2835.2752      22.204395      22.204395      22.204395      1142.3728     -151.38326     -1510.4906    
     16400   288.06905     -3423.7178     -2835.5226      595.41047     -2740.5049      22.200912      22.200912      22.200912      240.98134      790.29575      754.95433    
     16500   292.43816     -3427.5139     -2830.3976     -764.47035     -2952.5218      22.208628      22.208628      22.208628     -852.55167     -3.7635363     -1437.0958    
     16600   298.8945      -3413.2543     -2802.9551      310.21583     -2753.4583      22.199641      22.199641      22.199641     -1542.4572      743.10635      1729.9983    
     16700   290.6761      -3395.7073     -2802.1889      703.50851     -2689.8273      22.20705       22.20705       22.20705       266.74309      1924.6284     -80.845979    
     16800   305.45368     -3393.6554     -2769.9633     -121.44177     -2789.445       22.239637      22.239637      22.239637     -623.16176      737.46427     -478.62784    
     16900   304.97019     -3355.4005     -2732.6957      503.17017     -2651.4201      22.290664      22.290664      22.290664     -616.26889      1159.5786      966.20074    
     17000   307.36004     -3334.2926     -2706.708       542.85949     -2618.0842      22.369807      22.369807      22.369807     -628.39295      930.92054      1326.0509    
     17100   308.98658     -3348.1427     -2717.237      -1318.9688     -2935.0191      22.454526      22.454526      22.454526     -1583.7507     -608.29774     -1764.858     
     17200   279.15372     -3307.8628     -2737.8715      453.55781     -2662.7086      22.481826      22.481826      22.481826     -28.517549      726.86431      662.32668    
     17300   294.19303     -3309.5494     -2708.8499     -763.91232     -2835.4669      22.483171      22.483171      22.483171     -1370.5892     -983.14984      62.002086    
     17400   301.44627     -3319.0974     -2703.5879     -974.33086     -2863.8237      22.424657      22.424657      22.424657     -1329.5847     -632.0028      -961.40503    
     17500   314.7281      -3353.0935     -2710.4644      871.66346     -2569.3177      22.309099      22.309099      22.309099      1492.7284      1586.9005     -464.63858    
     17600   300.797       -3404.0754     -2789.8916      830.26443     -2657.1308      22.215657      22.215657      22.215657      309.35704      247.16164      1934.2746    
     17700   299.26872     -3407.4483     -2796.385       1271.2717     -2594.1507      22.17755       22.17755       22.17755       1519.542       1335.9881      958.28509    
     17800   292.18714     -3395.1705     -2798.5667     -6.3838574     -2799.5859      22.203731      22.203731      22.203731     -607.98702      139.1779       449.65755    
     17900   296.48371     -3364.1408     -2758.7641      532.80214     -2673.4388      22.226887      22.226887      22.226887      947.60116      398.2238       252.58146    
     18000   298.5423      -3345.9949     -2736.4148     -884.62959     -2878.5069      22.249021      22.249021      22.249021     -399.80082     -1388.8517     -865.23625    
     18100   305.85008     -3370.7372     -2746.2357     -147.98908     -2770.0015      22.247536      22.247536      22.247536      927.97787     -179.96061     -1191.9845    
     18200   298.91389     -3387.1455     -2776.8067      228.87721     -2740.1178      22.23405       22.23405       22.23405      -355.87361     -368.87822      1411.3835    
     18300   297.55202     -3395.0679     -2787.5098      209.58913     -2753.9021      22.236419      22.236419      22.236419      458.001       -561.66471      732.43108    
     18400   309.10534     -3428.9696     -2797.8213     -723.32679     -2914.1742      22.259852      22.259852      22.259852     -561.92917     -612.82685     -995.22434    
     18500   289.08988     -3393.6384     -2803.3588     -46.005025     -2810.7602      22.26096       22.26096       22.26096      -588.31019      258.22475      192.07036    
     18600   291.21662     -3386.5076     -2791.8855     -312.28793     -2842.0339      22.247203      22.247203      22.247203     -918.81644      263.81991     -281.86725    
     18700   303.18609     -3387.7194     -2768.6574     -268.712       -2811.6423      22.218644      22.218644      22.218644      517.81935     -500.18647     -823.76888    
     18800   311.73487     -3377.519      -2741.0016     -120.86273     -2760.2214      22.174799      22.174799      22.174799     -233.46462      581.53886     -710.66243    
     18900   320.72331     -3366.8778     -2712.0073      307.17411     -2663.4025      22.138064      22.138064      22.138064     -6.3863333      1550.8226     -622.91395    
     19000   310.1305      -3359.5457     -2726.3043      1025.4509     -2564.1181      22.134736      22.134736      22.134736     -930.21447      1953.2564      2053.3108    
     19100   287.1047      -3352.4495     -2766.2234     -834.63158     -2898.6047      22.155692      22.155692      22.155692     -828.72171     -399.56631     -1275.6067    
     19200   297.78231     -3375.8645     -2767.8363      34.892087     -2762.3156      22.137581      22.137581      22.137581      542.11798      362.68536     -800.12707    
     19300   301.14129     -3379.7995     -2764.9127      60.473056     -2755.3999      22.094759      22.094759      22.094759     -1165.5619      1013.5241      333.45704    
     19400   308.78256     -3383.5026     -2753.0135      1052.7675     -2588.4668      22.047544      22.047544      22.047544      268.95343      2214.8834      674.46565    
     19500   305.17661     -3387.2754     -2764.1491      498.52207     -2686.3165      22.039428      22.039428      22.039428      699.15854      647.81509      148.59258    
     19600   299.33418     -3389.1002     -2777.9033      598.61074     -2684.1198      22.064903      22.064903      22.064903      616.30687      912.06159      267.46375    
     19700   299.79216     -3410.6068     -2798.4747     -1.0419805     -2798.639       22.113126      22.113126      22.113126      826.76973      88.318138     -918.21381    
     19800   288.81603     -3405.9512     -2816.2308      213.53977     -2782.3424      22.159777      22.159777      22.159777     -58.503868      591.38661      107.73656    
     19900   282.3757      -3392.894      -2816.3238      658.22429     -2711.4447      22.189441      22.189441      22.189441      789.93403      38.075125      1146.6637    
     20000   288.27511     -3372.7575     -2784.1416      376.00059     -2723.9652      22.222209      22.222209      22.222209     -349.69163      567.89944      909.79394    
     20100   298.87396     -3368.341      -2758.0838     -386.81034     -2820.1486      22.241143      22.241143      22.241143     -571.3524       670.57728     -1259.6559    
     20200   298.38589     -3361.0441     -2751.7835     -83.123203     -2765.1         22.229583      22.229583      22.229583     -475.08555      261.69456     -35.978614    
     20300   314.56738     -3369.6951     -2727.3941      119.80749     -2708.2942      22.193389      22.193389      22.193389     -583.93976      987.03379     -43.671572    
     20400   316.55162     -3366.2628     -2719.9103     -256.47868     -2760.5552      22.149281      22.149281      22.149281      19.220508     -784.24967     -4.4068703    
     20500   297.33969     -3363.5772     -2756.4527      615.84551     -2659.5742      22.094963      22.094963      22.094963      440.68365      323.44244      1083.4104    
     20600   306.01512     -3399.3413     -2774.5028     -114.58999     -2792.4693      22.070544      22.070544      22.070544     -156.30284      1325.2029     -1512.67      
     20700   311.0157      -3406.6048     -2771.5558     -6.5883557     -2772.5894      22.074598      22.074598      22.074598     -149.83498     -362.70683      492.77674    
     20800   289.58815     -3385.5313     -2794.2343     -60.601286     -2803.7705      22.097272      22.097272      22.097272     -1063.3027      898.79028     -17.291456    
     20900   294.8445      -3403.276      -2801.2463     -600.25087     -2895.7579      22.101689      22.101689      22.101689     -488.94899     -99.752209     -1212.0514    
     21000   295.62817     -3419.8142     -2816.1844      236.9849      -2778.9551      22.084924      22.084924      22.084924     -567.78205     -117.72252      1396.4593    
     21100   290.50916     -3419.801      -2826.6235      108.84271     -2809.5864      22.058367      22.058367      22.058367      225.6518       911.61559     -810.73927    
     21200   282.95377     -3389.2352     -2811.4847      609.81163     -2716.3018      22.037507      22.037507      22.037507      1375.5019      204.87018      249.06283    
     21300   316.70955     -3412.0185     -2765.3436     -119.24675     -2784.0104      22.058866      22.058866      22.058866      653.85298     -762.03825     -249.55497    
     21400   302.9489      -3379.8669     -2761.2892     -1.3896405     -2761.5079      22.096627      22.096627      22.096627      77.237749     -72.540423     -8.8662469    
     21500   309.77919     -3392.788      -2760.2638     -508.94182     -2840.7383      22.132886      22.132886      22.132886     -1356.178      -222.34404      51.696585    
     21600   282.03008     -3373.2073     -2797.3428     -851.95896     -2932.1639      22.138815      22.138815      22.138815     -211.44413     -949.27832     -1395.1544    
     21700   284.06891     -3387.6169     -2807.5894     -852.06931     -2941.7051      22.099182      22.099182      22.099182     -204.71314     -1434.4034     -917.09142    
     21800   308.98722     -3377.0028     -2746.0957      310.50599     -2697.5431      22.050703      22.050703      22.050703     -254.26449      1002.9564      182.82606    
     21900   299.49178     -3349.5122     -2737.9935      437.90506     -2669.5253      22.05012       22.05012       22.05012      -75.662881      524.75619      864.62187    
     22000   291.63407     -3321.2345     -2725.76       -787.06516     -2849.1094      22.067349      22.067349      22.067349     -619.33626     -847.04207     -894.81715    
     22100   306.69248     -3360.2667     -2734.0452      24.271991     -2730.2508      22.048913      22.048913      22.048913     -1159.4913      691.1693       541.138      
     22200   304.38956     -3376.6046     -2755.0853      354.5435      -2699.8252      22.027007      22.027007      22.027007     -1044.1569      1117.7384      990.04901    
     22300   289.45562     -3397.7057     -2806.6793     -75.766166     -2818.467       22.013674      22.013674      22.013674      153.41946     -350.92944     -29.788519    
     22400   286.57966     -3404.6406     -2819.4865      1140.9795     -2642.4212      21.995132      21.995132      21.995132      1473.3483      1147.499       802.09108    
     22500   316.14539     -3436.8089     -2791.2859     -468.79226     -2864.1656      22.008142      22.008142      22.008142     -472.13025     -189.43052     -744.81603    
     22600   300.26914     -3414.3004     -2801.1944     -188.2215      -2830.5324      22.027343      22.027343      22.027343     -1063.5357     -424.93646      923.80764    
     22700   284.91574     -3413.421      -2831.6644     -924.13791     -2975.7186      22.027797      22.027797      22.027797     -1074.1312     -596.76576     -1101.5168    
     22800   292.57346     -3431.8375     -2834.445      -161.31366     -2859.477       21.994613      21.994613      21.994613     -912.85715      355.37507      73.541095    
     22900   292.13873     -3407.0815     -2810.5766      1568.4237     -2568.6573      21.950466      21.950466      21.950466      425.90646      1623.8922      2655.4724    
     23000   303.58947     -3407.0121     -2787.1265      1856.886      -2500.4151      21.958092      21.958092      21.958092      1397.8342      1811.9364      2360.8874    
     23100   302.72988     -3383.711      -2765.5805     -142.28417     -2787.7912      22.038222      22.038222      22.038222      453.84449     -616.48071     -264.21628    
     23200   294.52264     -3344.3465     -2742.974      -188.26624     -2772.6584      22.111946      22.111946      22.111946     -1015.5936      922.24496     -471.45006    
     23300   303.56412     -3338.2334     -2718.3995     -128.17909     -2738.7168      22.150899      22.150899      22.150899      129.82462      323.13521     -837.49711    
     23400   316.56778     -3344.8824     -2698.4969      48.7444       -2690.7604      22.160589      22.160589      22.160589     -584.31489      724.51984      6.0282487    
     23500   299.72826     -3337.0082     -2725.0066      1079.6723     -2553.5719      22.163769      22.163769      22.163769      1686.84        206.83952      1345.3374    
     23600   291.36732     -3348.252      -2753.3222     -786.58083     -2878.9159      22.204935      22.204935      22.204935     -314.78787     -1166.0862     -878.86844    
     23700   308.06889     -3368.671      -2739.639      -125.59876     -2759.7692      22.232869      22.232869      22.232869      1487.0429     -1061.4027     -802.4365     
     23800   304.90789     -3362.5948     -2740.0172     -1275.3933     -2944.8734      22.248961      22.248961      22.248961     -2497.7327     -146.66375     -1181.7834    
     23900   290.85287     -3363.3674     -2769.4881     -780.23081     -2894.3497      22.221671      22.221671      22.221671     -1258.2666     -659.07945     -423.34634    
     24000   288.52918     -3389.5391     -2800.4044     -355.62264     -2856.8148      22.156328      22.156328      22.156328     -110.80865     -1269.4884      313.42911    
     24100   288.91133     -3407.3069     -2817.3919     -408.40216     -2881.4322      22.071389      22.071389      22.071389     -567.60227     -447.8247      -209.7795     
     24200   303.24248     -3401.7884     -2782.6113      636.46677     -2684.0036      21.982969      21.982969      21.982969      1384.9184     -468.88592      993.36785    
     24300   304.04104     -3379.255      -2758.4473      1109.7621     -2587.85        21.9258        21.9258        21.9258        1648.5416      963.37013      717.37473    
     24400   295.85312     -3366.3023     -2762.2131      1825.6956     -2481.259       21.933623      21.933623      21.933623      2977.1807      879.61354      1620.2925    
     24500   286.81423     -3361.9722     -2776.3392      385.80289     -2716.3063      22.014863      22.014863      22.014863      195.60579     -593.9515       1555.7544    
     24600   305.27162     -3396.8993     -2773.579      -647.15154     -2875.4157      22.097383      22.097383      22.097383     -1826.6269     -493.74007      378.91237    
     24700   307.74323     -3394.9274     -2766.5604      201.86344     -2734.5779      22.147573      22.147573      22.147573      312.46366     -362.3053       655.43195    
     24800   298.22316     -3388.223      -2779.2946     -1044.1911     -2945.961       22.202269      22.202269      22.202269     -1230.1012     -1592.7155     -309.75648    
     24900   291.26868     -3387.0811     -2792.3527     -1022.6142     -2955.6574      22.205998      22.205998      22.205998     -1942.5141     -420.71267     -704.61582    
     25000   314.89137     -3389.0619     -2746.0995     -273.16127     -2789.4308      22.156564      22.156564      22.156564     -58.394538     -502.38624     -258.70304    
     25100   292.27292     -3342.0573     -2745.2784     -160.83131     -2770.6259      22.108684      22.108684      22.108684     -901.90946      912.42867     -493.01314    
     25200   298.71141     -3344.5122     -2734.5869      102.26102     -2718.5364      22.078384      22.078384      22.078384     -1112.9368      517.73204      901.98787    
     25300   298.74209     -3353.1743     -2743.1863     -402.61298     -2806.1063      22.046604      22.046604      22.046604     -1570.5093      159.06615      203.60422    
     25400   302.15304     -3370.0949     -2753.1422      1308.9755     -2549.6404      22.008323      22.008323      22.008323      909.49417      2077.6266      939.80565    
     25500   297.93194     -3385.7465     -2777.4127      406.24446     -2714.2395      22.010167      22.010167      22.010167     -281.12184     -34.812527      1534.6678    
     25600   292.77223     -3380.7326     -2782.9342     -956.75438     -2931.891       22.018852      22.018852      22.018852     -599.40906     -1220.7768     -1050.0773    
     25700   297.82477     -3382.3858     -2774.2709      271.46117     -2732.1289      21.997693      21.997693      21.997693      109.80618      888.08784     -183.5105     
     25800   318.91215     -3390.1859     -2739.0136      1237.2116     -2546.9677      21.996912      21.996912      21.996912      353.31495      2307.5276      1050.7922    
     25900   303.24248     -3370.4738     -2751.2967     -252.95835     -2790.8476      22.050096      22.050096      22.050096     -741.80753      939.54007     -956.60759    
     26000   293.33672     -3354.153      -2755.202      -781.31943     -2878.5201      22.119439      22.119439      22.119439     -483.88674     -873.51809     -986.55346    
     26100   282.88739     -3360.8148     -2783.1998     -1203.158      -2973.6062      22.13915       22.13915       22.13915      -2062.2147     -161.72678     -1385.5325    
     26200   289.89267     -3431.1549     -2839.2361     -815.27741     -2967.4786      22.094464      22.094464      22.094464     -224.74207     -907.09384     -1313.9963    
     26300   296.20506     -3478.5007     -2873.6929      406.26546     -2810.3212      22.032809      22.032809      22.032809     -1337.084       641.43945      1914.4409    
     26400   297.69356     -3445.8444     -2837.9974      720.38456     -2726.0791      22.003255      22.003255      22.003255      879.32341      983.94796      297.8823     
     26500   297.58669     -3417.3896     -2809.7608      1546.9047     -2568.4763      22.032476      22.032476      22.032476      1532.6821      2964.0532      143.97881    
     26600   296.54851     -3393.4749     -2787.9658     -47.902923     -2795.5263      22.119245      22.119245      22.119245     -487.88141      2.1744024      341.99824    
     26700   310.71337     -3377.9539     -2743.5223     -230.31224     -2780.3504      22.21581       22.21581       22.21581      -173.99523      163.78659     -680.72808    
     26800   295.88737     -3328.8956     -2724.7365     -726.95621     -2842.0742      22.28526       22.28526       22.28526      -1462.1859      20.100004     -738.78272    
     26900   302.43812     -3322.3518     -2704.817      -587.30196     -2799.8122      22.300848      22.300848      22.300848     -958.56983      121.39474     -924.73079    
     27000   309.41361     -3312.8054     -2681.0277     -569.78364     -2772.9926      22.284968      22.284968      22.284968     -880.25435     -13.328635     -815.76794    
     27100   314.131       -3312.5493     -2671.1394     -427.10708     -2739.8084      22.256115      22.256115      22.256115     -657.86221     -325.85527     -297.60377    
     27200   308.50354     -3343.469      -2713.5496     -507.46117     -2794.7505      22.220857      22.220857      22.220857     -1180.3746      202.39731     -544.40628    
     27300   300.93157     -3349.6819     -2735.2233      236.90812     -2697.4651      22.191418      22.191418      22.191418      162.69348      1348.0464     -800.01557    
     27400   300.45348     -3357.6568     -2744.1744     -311.87272     -2793.7238      22.168101      22.168101      22.168101      9.3120889     -826.08762     -118.84264    
     27500   289.64569     -3346.2853     -2754.8708     -855.52205     -2890.0564      22.127943      22.127943      22.127943     -1273.9792     -145.7765      -1146.8104    
     27600   310.84032     -3352.7052     -2718.0143      1003.6347     -2560.5914      22.073551      22.073551      22.073551     -289.296        2157.0607      1143.1393    
     27700   318.60732     -3358.7499     -2708.2         563.99828     -2619.699       22.076568      22.076568      22.076568     -672.34501      906.86493      1457.4749    
     27800   292.98991     -3330.6826     -2732.4397     -96.031748     -2747.606       22.12398       22.12398       22.12398       635.01962      545.03749     -1468.1523    
     27900   304.0082      -3359.2198     -2738.4791     -34.69889      -2743.9927      22.169003      22.169003      22.169003      155.24273     -462.79517      203.45577    
     28000   273.43859     -3338.1507     -2779.8288     -444.98221     -2850.7943      22.196085      22.196085      22.196085     -1171.8204      934.58164     -1097.7079    
     28100   284.94971     -3364.81       -2782.9841      290.71228     -2736.6416      22.192865      22.192865      22.192865     -470.88681      722.20744      620.81622    
     28200   295.69465     -3377.6949     -2773.9294      529.43095     -2689.6208      22.185141      22.185141      22.185141     -170.59392      590.16679      1168.72      
     28300   299.54502     -3360.3858     -2748.7583     -905.78821     -2893.2207      22.196476      22.196476      22.196476     -1843.3602     -1059.923       185.91857    
     28400   299.46156     -3340.9679     -2729.5108     -1379.5912     -2948.6908      22.167914      22.167914      22.167914     -1533.5618     -698.50037     -1906.7116    
     28500   314.2525      -3357.6354     -2715.9774      382.07693     -2655.957       22.084657      22.084657      22.084657     -1078.5077      433.11028      1791.6282    
     28600   296.03418     -3369.0062     -2764.5473      1305.4765     -2561.2898      22.019152      22.019152      22.019152      699.53659      1860.9654      1355.9273    
     28700   291.53792     -3395.1263     -2799.8482     -32.829389     -2804.946       21.999632      21.999632      21.999632      865.69704     -249.86349     -714.32171    
     28800   294.54026     -3403.309      -2801.9005     -4.3256444     -2802.5721      21.998799      21.998799      21.998799     -327.71289     -108.47224      423.20819    
     28900   301.666       -3400.5343     -2784.5761      219.5031      -2750.4099      22.017099      22.017099      22.017099     -295.10239      648.24153      305.37015    
     29000   302.12102     -3386.9967     -2770.1094     -281.18351     -2814.0505      22.04627       22.04627       22.04627       921.70667     -557.33788     -1207.9193    
     29100   294.45106     -3389.8558     -2788.6294     -1026.0208     -2949.0328      22.04925       22.04925       22.04925      -2011.2222     -1193.8758      127.03553    
     29200   291.39272     -3400.2551     -2805.2735      7.1395124     -2804.1653      21.99667       21.99667       21.99667      -104.16892     -399.23076      524.81822    
     29300   299.47554     -3427.1786     -2815.693       1274.9634     -2619.1276      21.947133      21.947133      21.947133      1577.2315      894.47743      1353.1812    
     29400   274.09313     -3386.8685     -2827.2101      502.40244     -2749.7974      21.942944      21.942944      21.942944      920.84142      1085.3048     -498.93894    
     29500   302.10031     -3408.9494     -2792.1045      381.604       -2733.2064      21.9552        21.9552        21.9552        109.17507      503.46805      532.16887    
     29600   297.15657     -3380.0027     -2773.2521      138.06539     -2751.8714      21.979635      21.979635      21.979635      163.61733      130.8001       119.77873    
     29700   314.22964     -3397.8778     -2756.2665     -281.88534     -2800.1208      22.013442      22.013442      22.013442     -700.83784     -593.62571      448.80752    
     29800   303.26773     -3382.6259     -2763.3972      172.58436     -2736.4304      22.045359      22.045359      22.045359      671.33758      119.67902     -273.26353    
     29900   297.75991     -3409.5952     -2801.6127     -1257.0337     -2998.562       22.065339      22.065339      22.065339     -1647.037      -265.46077     -1858.6033    
     30000   297.782       -3444.1632     -2836.1356     -921.36372     -2980.0405      22.042266      22.042266      22.042266     -1238.6043     -438.69791     -1086.7889    
     30100   290.66813     -3430.1395     -2836.6374      845.36961     -2705.5007      21.992128      21.992128      21.992128      614.49146      941.11049      980.50688    
     30200   313.43718     -3421.6861     -2781.6928      485.44183     -2706.4762      21.983675      21.983675      21.983675      702.94025      350.26704      403.1182     
     30300   285.84122     -3352.327      -2768.6807     -140.5943      -2790.5299      22.005442      22.005442      22.005442      262.331       -39.083277     -645.0306     
     30400   311.22696     -3378.9732     -2743.4929      66.759131     -2733.0815      22.031344      22.031344      22.031344      149.63945     -693.52842      744.16636    
     30500   299.11607     -3369.0311     -2758.2795     -444.60817     -2827.9631      22.067807      22.067807      22.067807     -375.24437     -667.86969     -290.71043    
     30600   297.60653     -3391.2988     -2783.6295     -565.19804     -2872.4446      22.086998      22.086998      22.086998     -818.61127     -306.53393     -570.44892    
     30700   290.78275     -3389.9628     -2796.2266     -50.561282     -2804.1603      22.076353      22.076353      22.076353      351.22394     -1214.672       711.7642     
     30800   310.58096     -3357.3751     -2723.2138      5.4552398     -2722.361       22.049281      22.049281      22.049281     -658.55513      48.928365      625.99249    
     30900   301.93948     -3348.9905     -2732.4739      421.63479     -2666.7742      22.025058      22.025058      22.025058      288.9058       1312.9472     -336.94858    
     31000   311.93619     -3397.718      -2760.7896      115.51515     -2742.7881      22.025749      22.025749      22.025749      936.9268       334.75408     -925.13544    
     31100   295.73245     -3385.7        -2781.8573      217.00847     -2747.942       22.046891      22.046891      22.046891     -629.43686      319.8082       960.65406    
     31200   286.75589     -3362.0065     -2776.4926     -221.11151     -2811.1932      22.077485      22.077485      22.077485      747.04232     -763.65537     -646.72148    
     31300   310.0188      -3374.8091     -2741.7957     -178.17706     -2769.8516      22.102021      22.102021      22.102021     -408.57544      2.0080783     -127.96382    
     31400   310.05029     -3369.3345     -2736.2567     -367.03553     -2794.0175      22.097826      22.097826      22.097826     -301.84013     -728.25776     -71.008695    
     31500   305.25236     -3373.1939     -2749.9128      971.27551     -2597.3259      22.085114      22.085114      22.085114      542.77645      2074.5365      296.51357    
     31600   288.92014     -3365.5848     -2775.6518     -406.90586     -2839.5691      22.084264      22.084264      22.084264     -284.09186     -320.78076     -615.84497    
     31700   300.17582     -3386.6606     -2773.7452      258.27218     -2733.2156      22.076974      22.076974      22.076974     -1623.9573      1032.1849      1366.589     
     31800   304.53588     -3400.9659     -2779.1478     -1049.8648     -2943.8633      22.075393      22.075393      22.075393     -274.77465     -1850.9695     -1023.8501    
     31900   280.39308     -3399.9487     -2827.4267     -688.52703     -2934.8876      22.036937      22.036937      22.036937     -1585.9504      204.8475      -684.47817    
     32000   295.07717     -3402.5992     -2800.0945      1494.7442     -2568.9454      21.969312      21.969312      21.969312      780.54723      2311.7037      1391.9817    
     32100   298.36389     -3385.4111     -2776.1954      1654.8117     -2520.8021      21.954742      21.954742      21.954742      963.10227      1242.113       2759.2199    
     32200   298.1206      -3367.1464     -2758.4274      908.94744     -2616.7042      22.029709      22.029709      22.029709      206.80343      2064.7242      455.31472    
     32300   298.85325     -3354.8524     -2744.6374     -447.57812     -2815.4897      22.141292      22.141292      22.141292     -1120.9905     -764.87796      543.13409    
     32400   306.25289     -3360.5187     -2735.1948     -933.98898     -2884.695       22.223278      22.223278      22.223278     -1780.0356     -241.2066      -780.72475    
     32500   289.95606     -3356.6092     -2764.561      -678.03568     -2873.4053      22.244659      22.244659      22.244659     -231.9127      -1360.1811     -442.01323    
     32600   301.78746     -3392.1397     -2775.9335     -41.816677     -2782.6231      22.219013      22.219013      22.219013      184.62245      56.048029     -366.1205     
     32700   285.80136     -3393.9938     -2810.4289     -418.49821     -2877.0231      22.179694      22.179694      22.179694     -97.67635      -13.037426     -1144.7809    
     32800   292.47127     -3401.7656     -2804.5817     -766.6619      -2925.6612      22.123998      22.123998      22.123998     -435.75971     -126.51604     -1737.71      
     32900   301.92135     -3370.3257     -2753.8461      6.5755096     -2752.8174      22.054159      22.054159      22.054159      979.07223     -777.10225     -182.24345    
     33000   297.59306     -3355.8115     -2748.1697      969.24692     -2597.9405      21.986088      21.986088      21.986088      974.18834      1465.0123      468.54008    
     33100   302.01462     -3382.6866     -2766.0165      404.36522     -2703.5842      21.957684      21.957684      21.957684      1040.6619     -23.868734      196.30254    
     33200   284.13113     -3367.9013     -2787.7467      81.647293     -2775.1471      21.953981      21.953981      21.953981      831.83157     -285.60171     -301.28797    
     33300   302.38773     -3399.8875     -2782.4557      176.35354     -2755.2815      21.943142      21.943142      21.943142      348.22395     -189.63326      370.46992    
     33400   302.23367     -3392.2411     -2775.1238      1410.3597     -2557.8017      21.943167      21.943167      21.943167      1733.2768      58.860957      2438.9414    
     33500   306.73987     -3400.0808     -2773.7625      628.97864     -2675.9013      22.014034      22.014034      22.014034      812.47278      223.07672      851.38643    
     33600   289.392       -3373.8207     -2782.9242     -359.8462      -2839.603       22.104252      22.104252      22.104252      653.16287     -1333.2653     -399.43617    
     33700   295.95516     -3399.723      -2795.4255     -1217.9301     -2988.3517      22.14612       22.14612       22.14612      -888.58356     -1624.6316     -1140.5752    
     33800   279.96513     -3377.9338     -2806.2856      231.7545      -2769.6786      22.125169      22.125169      22.125169      641.50614      250.12804     -196.37067    
     33900   312.86042     -3397.5295     -2758.714       68.370269     -2747.9867      22.0757        22.0757        22.0757       -1435.5759      552.13476      1088.5519    
     34000   303.40408     -3377.3878     -2757.8807      447.55212     -2688.1963      22.019393      22.019393      22.019393      446.35509      1130.7693     -234.46806    
     34100   301.35108     -3385.9258     -2770.6107      771.09153     -2651.1253      21.984217      21.984217      21.984217     -325.67657      761.36162      1877.5895    
     34200   289.96418     -3392.9855     -2800.9207     -307.65235     -2848.5231      21.973406      21.973406      21.973406     -674.58457      671.61491     -919.9874     
     34300   282.77227     -3402.266      -2824.886       449.5517      -2755.3558      21.970467      21.970467      21.970467      1560.3177      636.86623     -848.52882    
     34400   300.12701     -3392.8235     -2780.0077     -62.838397     -2789.7296      21.972744      21.972744      21.972744      591.71999     -130.54808     -649.6871     
     34500   284.27419     -3330.0911     -2749.6444      1330.1009     -2543.7153      21.977878      21.977878      21.977878      660.43401      2297.774       1032.0945    
     34600   307.73433     -3363.9112     -2735.5624      406.54194     -2672.1433      22.033306      22.033306      22.033306     -1086.7875      909.51782      1396.8955    
     34700   295.82334     -3346.7972     -2742.7689      496.94022     -2664.5055      22.10342       22.10342       22.10342       1694.4099      145.41864     -349.00786    
     34800   295.12973     -3367.1525     -2764.5404     -259.51972     -2805.7885      22.171036      22.171036      22.171036     -367.2584       1278.7194     -1690.0201    
     34900   293.82874     -3359.394      -2759.4383     -956.98262     -2912.5316      22.219044      22.219044      22.219044     -1158.8719     -712.03972     -1000.0363    
     35000   317.26761     -3352.8008     -2704.9864     -283.86756     -2750.4427      22.226322      22.226322      22.226322     -1069.4271     -556.7422       774.56665    
     35100   302.17905     -3335.6919     -2718.6861     -301.51551     -2766.8962      22.215224      22.215224      22.215224      267.36263      737.92253     -1909.8317    
     35200   304.07211     -3356.3942     -2735.5231     -940.67219     -2885.2424      22.181343      22.181343      22.181343     -1484.4843     -63.817981     -1273.7143    
     35300   298.38514     -3382.0915     -2772.8324      227.29515     -2736.9729      22.116319      22.116319      22.116319     -258.3323       36.407607      903.81015    
     35400   291.67557     -3386.2848     -2790.7256      318.52064     -2740.7795      22.071363      22.071363      22.071363      550.20992      354.29025      51.061752    
     35500   298.02155     -3383.0845     -2774.5677      669.5283      -2669.9632      22.044585      22.044585      22.044585      206.86872      1360.8006      440.91562    
     35600   293.16357     -3354.8734     -2756.2759      220.69629     -2721.868       22.029049      22.029049      22.029049      206.44973      558.56761     -102.92847    
     35700   303.12296     -3362.2115     -2743.2784      1092.8115     -2573.5394      22.001563      22.001563      22.001563      982.72323      1329.1665      966.54487    
     35800   290.72309     -3347.5354     -2753.9211      1356.0427     -2543.0398      22.010483      22.010483      22.010483      159.65438      1412.9493      2495.5243    
     35900   303.36957     -3378.8483     -2759.4116     -376.28816     -2818.3658      22.065109      22.065109      22.065109     -201.5883      -535.11023     -392.16594    
     36000   283.98085     -3374.834      -2794.9863     -508.76804     -2875.2631      22.11726       22.11726       22.11726      -145.74842     -1233.2723     -147.28336    
     36100   297.38423     -3396.1293     -2788.9138     -283.53044     -2833.8017      22.142054      22.142054      22.142054     -19.584606     -712.62836     -118.37835    
     36200   301.3528      -3375.5613     -2760.2427     -20.930895     -2763.5579      22.145334      22.145334      22.145334     -654.61424      532.92062      58.900943    
     36300   300.42244     -3349.1741     -2735.7551     -81.027175     -2748.5807      22.14066       22.14066       22.14066       1128.4906      80.279136     -1451.8513    
     36400   307.49324     -3337.6679     -2709.8113     -62.623551     -2719.7046      22.126308      22.126308      22.126308      637.51151     -621.49618     -203.88598    
     36500   314.97307     -3376.3438     -2733.2145     -848.77154     -2866.579       22.086377      22.086377      22.086377     -861.62564     -106.81644     -1577.8725    
     36600   293.49877     -3383.7212     -2784.4393      180.25501     -2756.3671      22.021031      22.021031      22.021031      916.08723     -122.74566     -252.57653    
     36700   301.88232     -3425.1747     -2808.7748      1359.8333     -2597.8656      21.990984      21.990984      21.990984      221.39719      1910.6338      1947.469     
     36800   301.14623     -3413.1941     -2798.2972     -111.22702     -2815.6137      22.018693      22.018693      22.018693     -1165.7812      350.89523      481.20488    
     36900   307.91297     -3406.9045     -2778.1909      692.79796     -2669.6675      22.063797      22.063797      22.063797      1433.4092      1004.153      -359.16823    
     37000   317.61256     -3408.0064     -2759.4877     -796.65925     -2885.0167      22.107104      22.107104      22.107104      383.97121     -2022.5845     -751.36449    
     37100   291.6737      -3387.6748     -2792.1195      127.84221     -2771.8977      22.135506      22.135506      22.135506      344.33958      464.09885     -424.9118     
     37200   286.38888     -3403.5177     -2818.7532     -820.88438     -2949.0073      22.158709      22.158709      22.158709     -612.83639     -436.117       -1413.6997    
     37300   303.30877     -3410.7858     -2791.4733     -1249.0819     -2989.4435      22.150202      22.150202      22.150202     -1366.7006     -1252.8627     -1127.6824    
     37400   300.02652     -3387.383      -2774.7724      1420.7485     -2550.8994      22.107325      22.107325      22.107325      799.89752      1220.8503      2241.4977    
     37500   309.32214     -3427.0825     -2795.4916      292.96906     -2749.4089      22.094292      22.094292      22.094292      1698.6028     -899.81555      80.119872    
     37600   298.47355     -3435.9154     -2826.4757     -442.62434     -2896.1306      22.097684      22.097684      22.097684     -395.00882     -1018.5753      85.711124    
     37700   302.33741     -3421.629      -2804.2999     -243.94231     -2842.627       22.085858      22.085858      22.085858     -407.03907     -155.25336     -169.5345     
     37800   307.80515     -3399.3366     -2770.8431      466.36086     -2697.5817      22.084752      22.084752      22.084752      869.82387      220.99525      308.26345    
     37900   310.76478     -3397.4069     -2762.8704     -794.86568     -2888.3418      22.120336      22.120336      22.120336     -106.11438     -2349.0066      70.523891    
     38000   306.40879     -3397.0966     -2771.4544     -492.23967     -2849.3864      22.142217      22.142217      22.142217     -1135.3424     -398.12981      56.753195    
     38100   300.26924     -3395.2348     -2782.1286      62.695392     -2772.1994      22.144583      22.144583      22.144583      233.05981     -530.99176      486.01813    
     38200   312.55732     -3449.7803     -2811.5837      0.64701385    -2811.4812      22.145214      22.145214      22.145214      665.12637      555.25489     -1218.4402    
     38300   273.82354     -3422.5161     -2863.4082     -449.11291     -2934.555       22.146652      22.146652      22.146652      990.94824     -1416.6119     -921.67509    
     38400   291.42657     -3445.6269     -2850.5762     -806.916       -2978.0951      22.128749      22.128749      22.128749     -1612.4572     -357.42849     -450.86233    
     38500   306.93921     -3432.3572     -2805.6319     -106.44067     -2822.373       22.093618      22.093618      22.093618     -161.04435     -27.86029      -130.41738    
     38600   306.05784     -3430.4538     -2805.5281      82.469206     -2792.5981      22.070377      22.070377      22.070377      1170.8393      90.477718     -1013.9094    
     38700   305.08812     -3416.5498     -2793.6041      920.00662     -2649.345       22.071174      22.071174      22.071174      1204.3773     -251.65537      1807.2979    
     38800   292.41432     -3393.6884     -2796.6208      630.72277     -2697.329       22.100373      22.100373      22.100373      1795.2079     -160.65879      257.61918    
     38900   300.17252     -3414.2619     -2801.3532     -115.2777      -2819.5994      22.140321      22.140321      22.140321     -1441.4301      352.97985      742.61714    
     39000   298.97462     -3381.5802     -2771.1175      265.84861     -2728.8891      22.166544      22.166544      22.166544      578.58467      870.46021     -651.49905    
     39100   299.09999     -3354.219      -2743.5002      340.51228     -2689.2178      22.193042      22.193042      22.193042      331.99087      809.61883     -120.07286    
     39200   305.78624     -3358.5989     -2734.2277     -632.98677     -2835.6428      22.230234      22.230234      22.230234     -787.39499     -502.41175     -609.15358    
     39300   298.68958     -3337.1407     -2727.2599     -1117.4425     -2906.4034      22.234806      22.234806      22.234806     -513.17266     -262.36706     -2576.7879    
     39400   309.97062     -3363.3777     -2730.4627     -784.86643     -2855.5064      22.188609      22.188609      22.188609     -630.81248     -1030.9643     -692.82251    
     39500   295.34703     -3368.5175     -2765.4617      1154.4376     -2583.4657      22.110835      22.110835      22.110835      112.74852      809.06486      2541.4995    
     39600   305.69033     -3433.2251     -2809.0498      1088.1892     -2638.0818      22.085714      22.085714      22.085714      905.47501      1051.3138      1307.7786    
     39700   286.7775      -3416.9254     -2831.3674     -632.55993     -2931.17        22.116759      22.116759      22.116759     -1250.2337     -186.36935     -461.07679    
     39800   296.02033     -3403.4498     -2799.0193      111.56055     -2781.3375      22.150326      22.150326      22.150326     -660.28263      167.53512      827.42916    
     39900   290.69416     -3370.6952     -2777.1399     -571.07796     -2868.1364      22.189686      22.189686      22.189686     -789.66076     -1112.673       189.09991    
     40000   304.9954      -3376.4149     -2753.6585     -1002.0109     -2913.8979      22.216397      22.216397      22.216397     -923.70552     -910.33968     -1171.9876    
     40100   304.84149     -3366.0748     -2743.6327     -1057.2878     -2912.586       22.210884      22.210884      22.210884     -253.39701     -1358.4233     -1560.0431    
     40200   311.27472     -3366.4908     -2730.913      -802.68648     -2858.3539      22.163022      22.163022      22.163022      41.575044     -2155.3993     -294.2352     
     40300   294.20571     -3376.4381     -2775.7127      100.04245     -2760.0084      22.079385      22.079385      22.079385      1011.9289     -234.84935     -476.95214    
     40400   290.25439     -3414.9493     -2822.292       492.03001     -2745.6764      22.019966      22.019966      22.019966      410.49636     -149.23137      1214.825     
     40500   286.71379     -3414.4354     -2829.0074      910.63329     -2687.781       21.990352      21.990352      21.990352      1717.678      -592.34699      1606.5689    
     40600   297.32303     -3417.9019     -2810.8114      1549.6396     -2570.3348      21.994904      21.994904      21.994904      1944.6088      2460.5269      243.7833     
     40700   303.66991     -3400.8534     -2780.8035     -680.76154     -2887.2908      22.053407      22.053407      22.053407     -1527.7935     -1492.5186      978.02752    
     40800   291.76432     -3373.4088     -2777.6684      983.29682     -2623.0433      22.092246      22.092246      22.092246      1438.8184      60.714026      1450.358     
     40900   300.46227     -3387.7093     -2774.2089      96.436273     -2758.9412      22.142118      22.142118      22.142118      255.06824     -292.55535      326.79593    
     41000   295.58644     -3370.3099     -2766.7653     -990.16046     -2924.3543      22.181018      22.181018      22.181018     -1187.5645     -780.54935     -1002.3676    
     41100   312.42929     -3374.9308     -2736.9956     -871.32506     -2875.0024      22.145296      22.145296      22.145296     -1188.5565     -1130.2889     -295.12971    
     41200   307.44721     -3376.5889     -2748.8263      1498.9769     -2513.2432      22.08807       22.08807       22.08807       1553.1454      1752.0767      1191.7085    
     41300   295.8189      -3391.4069     -2787.3877      730.49921     -2672.4654      22.095451      22.095451      22.095451      250.64849      1446.5662      494.28297    
     41400   299.62445     -3416.6492     -2804.8596     -217.75775     -2839.2266      22.11893       22.11893       22.11893      -3.8030836      295.18173     -944.65188    
     41500   301.73618     -3405.9728     -2789.8713     -173.23141     -2817.2794      22.137332      22.137332      22.137332     -46.151598     -757.70836      284.16572    
     41600   306.18007     -3391.5065     -2766.3312      531.85573     -2681.9443      22.158233      22.158233      22.158233      914.38592      741.67601     -60.494735    
     41700   293.99856     -3364.4595     -2764.1571      703.48915     -2651.9544      22.196784      22.196784      22.196784     -923.50282      1142.1093      1891.861     
     41800   289.7312      -3402.227      -2810.638      -1179.8863     -3000.0265      22.243984      22.243984      22.243984     -1999.9895     -1094.7556     -444.91368    
     41900   291.97457     -3401.7937     -2805.624      -748.64866     -2925.7486      22.241258      22.241258      22.241258     -1262.361      -1017.3649      33.779995    
     42000   305.28032     -3393.2851     -2769.947       713.3255      -2656.2029      22.194999      22.194999      22.194999      949.71164      617.82677      572.43811    
     42100   308.50448     -3394.3762     -2764.4548      733.15154     -2648.1937      22.154141      22.154141      22.154141      1477.1628      580.01289      142.27889    
     42200   293.29114     -3368.6915     -2769.8336      306.56314     -2721.3054      22.141109      22.141109      22.141109      630.93093      1513.4696     -1224.7111    
     42300   301.29436     -3348.5003     -2733.301       123.15556     -2713.81        22.139504      22.139504      22.139504      297.86631     -541.69775      613.29813    
     42400   305.25365     -3342.3797     -2719.096       803.02891     -2592.0583      22.136481      22.136481      22.136481      1535.2402     -103.34674      977.19328    
     42500   310.31474     -3331.1824     -2697.5647     -779.53619     -2821.223       22.156633      22.156633      22.156633     -842.03267     -1211.4557     -285.1202     
     42600   312.29135     -3354.4088     -2716.7552     -122.62217     -2736.2176      22.160719      22.160719      22.160719     -798.1755      -767.28274      1197.5917    
     42700   297.33004     -3384.6948     -2777.59        262.29137     -2735.9822      22.156694      22.156694      22.156694      512.99023      815.73906     -541.85517    
     42800   293.11222     -3398.3923     -2799.8997     -503.69919     -2879.5888      22.136922      22.136922      22.136922     -472.0007       146.59638     -1185.6933    
     42900   318.43527     -3430.8075     -2780.6089      439.2873      -2711.6859      22.075637      22.075637      22.075637     -96.356648      204.65451      1209.564     
     43000   305.94615     -3403.9373     -2779.2396      723.33393     -2666.3706      22.035354      22.035354      22.035354      1439.9458      832.9709      -102.9149     
     43100   297.53569     -3415.0576     -2807.5329      849.20039     -2674.9363      22.040194      22.040194      22.040194      518.37161      1640.0266      389.20292    
     43200   294.8885      -3459.566      -2857.4464     -370.2771      -2915.4337      22.061918      22.061918      22.061918     -1349.5277     -309.10641      547.80278    
     43300   290.35268     -3446.2835     -2853.4255     -939.62209     -3000.9981      22.083043      22.083043      22.083043     -964.53372     -1289.3304     -565.0022     
     43400   287.86658     -3400.5445     -2812.7627      392.83166     -2751.0364      22.086623      22.086623      22.086623     -151.66054      133.54829      1196.6072    
     43500   296.2989      -3387.9738     -2782.9745     -483.0583      -2859.0814      22.106314      22.106314      22.106314     -856.59628     -628.75119      36.172574    
     43600   295.5196      -3347.4613     -2744.0531     -101.28644     -2760.058       22.127967      22.127967      22.127967      444.37286     -785.86093      37.628758    
     43700   307.07098     -3356.7273     -2729.7329     -113.8653      -2747.774       22.147885      22.147885      22.147885      1028.4548     -94.698869     -1275.3518    
     43800   292.4946      -3335.1819     -2737.9503      426.87882     -2670.1905      22.161403      22.161403      22.161403      812.73305      1198.9128     -731.00941    
     43900   289.09779     -3331.8743     -2741.5786     -17.791506     -2744.4115      22.184455      22.184455      22.184455     -560.4872      -136.37954      643.49222    
     44000   311.26892     -3333.489      -2697.923      -869.0942      -2836.8902      22.215525      22.215525      22.215525     -551.65579     -184.05578     -1871.571     
     44100   338.54413     -3381.0357     -2689.7777     -1041.7014     -2856.4135      22.218586      22.218586      22.218586     -789.05702     -661.89831     -1674.1489    
[...]
     91200   321.38497     -3362.177      -2705.9555      1656.2535     -2448.6787      22.002195      22.002195      22.002195      455.28954      1687.5688      2825.9022    
     91300   300.84232     -3345.9475     -2731.6711     -671.28065     -2836.8328      22.064423      22.064423      22.064423     -2462.6696      130.28204      318.54565    
     91400   298.00619     -3389.6325     -2781.1471     -729.90681     -2896.5543      22.13247       22.13247       22.13247      -490.7856      -914.77962     -784.1552     
     91500   288.99211     -3375.1077     -2785.0277     -422.20102     -2852.077       22.164926      22.164926      22.164926     -702.71623     -858.29237      294.40555    
     91600   290.15667     -3346.3975     -2753.9397      193.94443     -2723.0934      22.176012      22.176012      22.176012     -136.91211      731.51126     -12.765859    
     91700   300.83962     -3322.7207     -2708.4499      459.94207     -2634.9968      22.206341      22.206341      22.206341      912.05424     -5.4684333      473.24039    
     91800   304.15946     -3309.4938     -2688.4444     -654.19922     -2793.6956      22.261126      22.261126      22.261126     -1520.1128     -275.53556     -166.94935    
     91900   298.33984     -3309.5896     -2700.4229     -1130.5192     -2883.0808      22.29264       22.29264       22.29264      -737.77737     -1452.0559     -1201.7245    
     92000   299.2865      -3293.7205     -2682.6209     -880.15305     -2824.6147      22.281533      22.281533      22.281533     -683.93378     -1086.7134     -869.81197    
     92100   308.312       -3303.526      -2673.9976      357.76864     -2616.7833      22.216492      22.216492      22.216492      1263.45       -137.83133     -52.31277     
     92200   306.08244     -3346.4531     -2721.4772      658.90066     -2617.1433      22.143348      22.143348      22.143348      578.39618      338.72665      1059.5791    
     92300   310.2998      -3390.8762     -2757.289       742.04696     -2640.4623      22.100984      22.100984      22.100984      2486.8804      747.6795      -1008.419     
     92400   298.15591     -3381.8299     -2773.0388     -199.40674     -2804.4507      22.105117      22.105117      22.105117      1017.6353     -1358.7482     -257.10733    
     92500   311.36585     -3411.637      -2775.8732     -209.57251     -2808.9886      22.127902      22.127902      22.127902      231.6098      -30.183662     -830.14367    
     92600   301.68012     -3386.8979     -2770.9109      1377.5377     -2552.3477      22.158101      22.158101      22.158101      1743.7393      952.13081      1436.743     
     92700   289.913       -3376.0278     -2784.0676     -1295.2677     -2991.6387      22.23193       22.23193       22.23193      -1607.2937     -621.78868     -1656.7209    
     92800   294.22651     -3364.3042     -2763.5363     -1448.2096     -2996.4229      22.257636      22.257636      22.257636     -1012.4103     -1663.6131     -1668.6053    
     92900   303.92134     -3351.0819     -2730.5187     -392.87796     -2793.2806      22.208594      22.208594      22.208594     -345.10531     -977.04784      143.51926    
     93000   306.33222     -3364.4842     -2738.9983     -601.19444     -2834.0073      22.128804      22.128804      22.128804     -1306.3462      63.108232     -560.34533    
     93100   287.47383     -3350.9511     -2763.9712      540.02609     -2679.8096      22.026283      22.026283      22.026283      795.58769      1095.4435     -270.95292    
     93200   305.23243     -3414.9396     -2791.6993      802.53859     -2667.9563      21.947895      21.947895      21.947895      2118.7786      714.79434     -425.95714    
     93300   279.70119     -3405.6228     -2834.5135      1549.513      -2596.0663      21.933455      21.933455      21.933455      966.02314      2490.3839      1192.132     
     93400   306.20831     -3443.1129     -2817.8799     -439.42676     -2885.7704      21.962522      21.962522      21.962522     -983.59119      333.85663     -668.54572    
     93500   288.62253     -3404.5635     -2815.2381     -159.34008     -2839.9349      21.986018      21.986018      21.986018     -565.97947      590.69223     -502.73299    
     93600   314.19383     -3426.045      -2784.5068     -510.27836     -2863.683       21.993988      21.993988      21.993988     -315.68513     -69.210362     -1145.9396    
     93700   298.31338     -3394.8023     -2785.6897      451.28318     -2715.7445      21.985905      21.985905      21.985905      857.06601     -268.51833      765.30186    
     93800   303.85927     -3400.5454     -2780.1089     -348.02472     -2834.0396      21.984506      21.984506      21.984506      478.7329      -834.93103     -687.87602    
     93900   293.70724     -3372.7734     -2773.0659      148.5785      -2750.0829      21.971406      21.971406      21.971406      302.01291     -26.303664      170.02627    
     94000   321.9693      -3391.9661     -2734.5515      670.22088     -2630.9529      21.966122      21.966122      21.966122     -657.16632      2650.2088      17.620109    
     94100   316.92655     -3372.4017     -2725.2837     -430.91396     -2792.0972      21.988686      21.988686      21.988686     -213.89022     -1073.9917     -4.8599984    
     94200   294.10573     -3381.0616     -2780.5404     -1184.0893     -2964.1456      21.989139      21.989139      21.989139     -231.47252     -1467.303      -1853.4924    
     94300   290.96059     -3371.8388     -2777.7395      713.62579     -2667.5553      21.95791       21.95791       21.95791      -87.191602      736.43904      1491.6299    
     94400   305.51849     -3360.9355     -2737.1111      25.439966     -2733.1841      21.95615       21.95615       21.95615      -233.15012      900.43814     -590.96811    
     94500   308.12431     -3374.9457     -2745.8006      1631.4094     -2493.3241      21.974921      21.974921      21.974921      1439.9858      1906.9999      1547.2426    
     94600   290.78492     -3347.4844     -2753.7438     -196.42726     -2784.4772      22.055209      22.055209      22.055209     -189.98159     -358.1579      -41.142273    
     94700   297.23134     -3362.6224     -2755.7192     -673.48935     -2862.3775      22.144337      22.144337      22.144337     -378.71933      368.72142     -2010.4702    
     94800   305.88132     -3367.6179     -2743.0526     -1465.4278     -2976.1232      22.175958      22.175958      22.175958     -1877.8002     -980.3351      -1538.1481    
     94900   293.97117     -3344.1051     -2743.8586     -379.44957     -2803.9613      22.145621      22.145621      22.145621     -1626.9492      109.89165      378.7088     
     95000   323.00022     -3373.0354     -2713.5158      431.23447     -2645.8508      22.076233      22.076233      22.076233      667.91032     -503.94226      1129.7353    
     95100   315.67993     -3339.7192     -2695.1466     -35.174553     -2700.6148      22.007979      22.007979      22.007979     -280.11756     -124.63061      299.22452    
     95200   308.55541     -3370.8199     -2740.7945      782.54234     -2619.7651      21.970287      21.970287      21.970287      528.48505      359.75521      1459.3868    
     95300   288.10607     -3346.7418     -2758.4711      519.37451     -2678.2519      21.960415      21.960415      21.960415     -597.49185      1293.9959      861.61946    
     95400   313.30697     -3392.5126     -2752.7852      1.1824025     -2752.6024      21.967831      21.967831      21.967831     -206.58005      265.48821     -55.360948    
     95500   301.09473     -3354.3023     -2739.5106      261.37846     -2698.9108      22.001859      22.001859      22.001859     -676.44303      1114.4796      346.09882    
     95600   327.64169     -3390.3252     -2721.3284     -454.59573     -2792.4543      22.05509       22.05509       22.05509      -1819.8367      113.94987      342.09965    
     95700   301.99547     -3365.6482     -2749.0173     -1070.3157     -2917.4466      22.097509      22.097509      22.097509     -1361.1531      54.381908     -1904.176     
     95800   285.46316     -3361.9416     -2779.0673     -879.60634     -2917.3724      22.091471      22.091471      22.091471     -370.58536     -478.98472     -1789.2489    
     95900   313.01822     -3413.4943     -2774.3565     -901.24967     -2914.6493      22.017674      22.017674      22.017674     -214.92455     -830.29231     -1658.5322    
     96000   301.13115     -3376.9016     -2762.0355      646.48918     -2662.7465      21.919028      21.919028      21.919028     -39.776571      1339.2019      640.04222    
     96100   325.69833     -3405.7867     -2740.758       1040.8888     -2582.0191      21.867596      21.867596      21.867596      722.37378      1931.7115      468.58104    
     96200   309.47893     -3376.2158     -2744.3048      724.91969     -2633.4939      21.884613      21.884613      21.884613      1976.8013      542.91281     -344.95503    
     96300   291.79997     -3386.9275     -2791.1144     -495.29761     -2867.2389      21.924391      21.924391      21.924391     -335.59727     -175.15209     -975.14348    
     96400   298.91602     -3402.4089     -2792.0657     -321.64451     -2841.6715      21.949602      21.949602      21.949602     -151.49726     -1089.9259      276.48962    
     96500   296.49019     -3404.0728     -2798.6829     -669.33933     -2902.0116      21.956662      21.956662      21.956662     -1440.3723      105.33693     -672.98266    
     96600   303.10258     -3406.7839     -2787.8925      784.35371     -2666.9644      21.947228      21.947228      21.947228      801.91504      1765.7077     -214.56158    
     96700   301.40875     -3385.7249     -2770.2919      918.19863     -2628.6142      21.953126      21.953126      21.953126      779.1089       1820.8218      154.66521    
     96800   296.68624     -3395.9538     -2790.1635     -122.14188     -2809.0812      21.980754      21.980754      21.980754      1047.4982      217.6232      -1631.547     
     96900   289.6891      -3407.0306     -2815.5275     -765.62514     -2934.6235      22.012451      22.012451      22.012451     -812.96025     -874.26256     -609.65261    
     97000   293.8999      -3405.4658     -2805.3649     -361.7377      -2861.6989      22.020829      22.020829      22.020829      27.68211      -1046.9475     -65.947674    
     97100   299.78412     -3371.8196     -2759.7039      314.93111     -2710.7107      22.013108      22.013108      22.013108      641.98064     -94.437125      397.2498     
     97200   303.60163     -3367.9799     -2748.0695      404.92796     -2685.0455      22.016619      22.016619      22.016619      689.76708      641.98096     -116.96417    
     97300   309.76977     -3385.4444     -2752.9395      519.02857     -2672.0634      22.025089      22.025089      22.025089      362.39396      488.06872      706.62303    
     97400   311.47362     -3397.0629     -2761.079      -407.46864     -2824.7709      22.048115      22.048115      22.048115     -876.29672     -150.20527     -195.90391    
     97500   286.74804     -3352.6368     -2767.1389     -36.155556     -2772.7976      22.057408      22.057408      22.057408      778.37209      723.44831     -1610.2871    
     97600   300.92119     -3377.8493     -2763.4119      837.69172     -2632.2788      22.058915      22.058915      22.058915      1049.902       1070.0538      393.11927    
     97700   299.37287     -3370.549      -2759.273      -232.61736     -2795.8346      22.088651      22.088651      22.088651     -224.61782     -436.27202     -36.962235    
     97800   310.1467      -3338.4683     -2705.1937     -603.40886     -2800.4553      22.121273      22.121273      22.121273      160.18931     -908.35621     -1062.0597    
     97900   318.89545     -3347.9483     -2696.8101     -670.12417     -2802.7203      22.129362      22.129362      22.129362     -236.35265     -1307.8682     -466.15161    
     98000   303.02672     -3349.7281     -2730.9916     -653.25409     -2833.9672      22.110176      22.110176      22.110176     -693.61043     -575.63319     -690.51865    
     98100   301.25352     -3360.6949     -2745.5789     -461.10999     -2817.8155      22.064405      22.064405      22.064405     -494.93995     -604.65392     -283.73611    
     98200   303.64972     -3365.4033     -2745.3946      1166.5772     -2563.7818      22.018399      22.018399      22.018399      1080.6816      1087.0675      1331.9825    
     98300   301.77881     -3379.5478     -2763.3592      484.07331     -2688.0443      22.013952      22.013952      22.013952      599.70545      611.33462      241.17987    
     98400   288.44788     -3379.6431     -2790.6743      442.10562     -2721.7349      22.030382      22.030382      22.030382      549.71992     -226.04867      1002.6456    
     98500   303.81571     -3416.0759     -2795.7283     -85.47837      -2809.0906      22.048721      22.048721      22.048721     -1125.2542      850.8322       17.98687     
     98600   302.80879     -3414.7238     -2796.4322      559.71376     -2708.8761      22.053699      22.053699      22.053699      327.67721      1786.7913     -435.32726    
     98700   298.43105     -3407.3062     -2797.9533      369.7055      -2739.9106      22.080319      22.080319      22.080319     -662.47076      1419.492       352.09528    
     98800   297.40596     -3395.0586     -2787.7987      151.82318     -2763.8629      22.111159      22.111159      22.111159      978.72356     -689.03901      165.78499    
     98900   310.59856     -3384.0186     -2749.8214     -642.16524     -2851.5138      22.143953      22.143953      22.143953      717.57713     -1513.2822     -1130.7907    
     99000   293.17442     -3330.5505     -2731.9308     -574.3229      -2822.8227      22.139322      22.139322      22.139322     -673.03935     -393.80191     -656.12744    
     99100   317.85083     -3388.0417     -2739.0364      679.46194     -2631.9238      22.110564      22.110564      22.110564      1193.6918      143.55798      701.13599    
     99200   299.9892      -3388.8055     -2776.2711     -353.35198     -2831.971       22.110083      22.110083      22.110083     -28.734283     -487.73169     -543.58998    
     99300   283.61871     -3388.3518     -2809.2435      918.17655     -2664.2873      22.121349      22.121349      22.121349      1763.9635      413.05703      577.50914    
     99400   297.47171     -3397.0102     -2789.6162      171.70248     -2762.3846      22.155078      22.155078      22.155078      118.05956      540.15234     -143.10446    
     99500   297.49818     -3362.3343     -2754.8862     -347.55256     -2810.3063      22.195098      22.195098      22.195098     -481.36319     -893.31511      332.02062    
     99600   295.20294     -3334.2375     -2731.4759     -159.1043      -2756.9542      22.226484      22.226484      22.226484      189.40397     -53.084198     -613.63266    
     99700   305.01277     -3323.9247     -2701.1329      105.01263     -2684.2603      22.251273      22.251273      22.251273      565.42715      102.87639     -353.26566    
     99800   299.12258     -3311.3965     -2700.6316     -275.03642     -2744.9356      22.270279      22.270279      22.270279      193.41319     -983.24719     -35.275271    
     99900   306.03044     -3336.1607     -2711.291      -327.58053     -2764.0978      22.275732      22.275732      22.275732     -611.37625      18.001538     -389.36688    
    100000   298.19754     -3354.1056     -2745.2295     -580.5959      -2838.6865      22.264901      22.264901      22.264901     -904.25831     -850.71642      13.18705     
    100100   290.18158     -3354.3988     -2761.8901     -236.76862     -2799.7686      22.219324      22.219324      22.219324     -93.758765     -14.176992     -602.3701     
    100200   288.09073     -3351.6002     -2763.3607      520.44904     -2680.7588      22.16046       22.16046       22.16046       627.93062      508.94004      424.47645    
    100300   299.83345     -3360.5375     -2748.3212      1768.3366     -2468.8472      22.129256      22.129256      22.129256      1872.41        1572.1302      1860.4697    
    100400   294.89652     -3352.1057     -2749.9698     -413.6031      -2815.603       22.15923       22.15923       22.15923      -1179.991      -828.59581      767.77747    
    100500   302.99532     -3389.508      -2770.8355     -528.96803     -2854.8652      22.167109      22.167109      22.167109     -394.93699     -298.17987     -893.78722    
    100600   297.373       -3383.2731     -2776.0806      539.39058     -2690.5883      22.150449      22.150449      22.150449     -875.21447      1001.9682      1491.418     
    100700   306.56913     -3394.2491     -2768.2794      594.10422     -2673.931       22.164876      22.164876      22.164876      1146.6203      916.31086     -280.61847    
    100800   287.54396     -3367.0804     -2779.9573      934.68027     -2630.1358      22.233701      22.233701      22.233701      1399.3466     -283.05442      1687.7486    
    100900   295.22856     -3395.5811     -2792.7672     -1634.5508     -3057.5336      22.311539      22.311539      22.311539     -1736.7553     -1041.7452     -2125.1518    
    101000   280.34707     -3376.0673     -2803.6393     -957.91919     -2958.8225      22.312418      22.312418      22.312418     -338.02223     -739.07631     -1796.659     
Loop time of 1757.38 on 1 procs for 100000 steps with 1029 atoms

Performance: 4.916 ns/day, 4.882 hours/ns, 56.903 timesteps/s
87.9% CPU use with 1 MPI tasks x 1 OpenMP threads

MPI task timing breakdown:
Section |  min time  |  avg time  |  max time  |%varavg| %total
---------------------------------------------------------------
Pair    | 991.05     | 991.05     | 991.05     |   0.0 | 56.39
Bond    | 0.2568     | 0.2568     | 0.2568     |   0.0 |  0.01
Kspace  | 182        | 182        | 182        |   0.0 | 10.36
Neigh   | 23.536     | 23.536     | 23.536     |   0.0 |  1.34
Comm    | 8.6616     | 8.6616     | 8.6616     |   0.0 |  0.49
Output  | 0.40087    | 0.40087    | 0.40087    |   0.0 |  0.02
Modify  | 547.39     | 547.39     | 547.39     |   0.0 | 31.15
Other   |            | 4.08       |            |       |  0.23

Nlocal:           1029 ave        1029 max        1029 min
Histogram: 1 0 0 0 0 0 0 0 0 0
Nghost:           8117 ave        8117 max        8117 min
Histogram: 1 0 0 0 0 0 0 0 0 0
Neighs:         344592 ave      344592 max      344592 min
Histogram: 1 0 0 0 0 0 0 0 0 0

Total # of neighbors = 344592
Ave neighs/atom = 334.88047
Ave special neighs/atom = 2
Neighbor list builds = 1414
Dangerous builds = 0

write_data  water2.data
System init for write_data ...
PPPM initialization ...
  using 12-bit tables for long-range coulomb (src/kspace.cpp:342)
  G vector (1/distance) = 0.30723777
  grid = 20 20 20
  stencil order = 5
  estimated absolute RMS force accuracy = 0.0024167785
  estimated relative force accuracy = 7.2780565e-06
  using double precision FFTW3
  3d grid and FFT values/proc = 19683 8000
Generated 0 of 1 mixed pair_coeff terms from geometric mixing rule
WARNING: Not all mixed pair coeffs generated from mixing. Use write_data with 'pair ij' option to store all pair coeffs. (src/write_data.cpp:309)
write_restart     water2.restart
System init for write_restart ...
PPPM initialization ...
  using 12-bit tables for long-range coulomb (src/kspace.cpp:342)
  G vector (1/distance) = 0.30723777
  grid = 20 20 20
  stencil order = 5
  estimated absolute RMS force accuracy = 0.0024167785
  estimated relative force accuracy = 7.2780565e-06
  using double precision FFTW3
  3d grid and FFT values/proc = 19683 8000
Generated 0 of 1 mixed pair_coeff terms from geometric mixing rule
Total wall time: 0:29:17
