LAMMPS (4 May 2022)
OMP_NUM_THREADS environment is not set. Defaulting to 1 thread. (src/comm.cpp:98)
  using 1 OpenMP thread(s) per MPI task
# spc water - 1=O, 2=H

read_restart    water1.restart
Reading restart file ...
  restart file = 4 May 2022, LAMMPS = 4 May 2022
  restoring atom style full from restart
  orthogonal box = (-0.74477645 -0.74477645 -0.74477645) to (31.744776 31.744776 31.744776)
  1 by 1 by 1 MPI processor grid
  restoring pair style lj/cut/coul/long from restart
  restoring bond style harmonic from restart
  restoring angle style harmonic from restart
  3000 atoms
  2000 bonds
  1000 angles
Finding 1-2 1-3 1-4 neighbors ...
  special bond factors lj:    0        0        0       
  special bond factors coul:  0        0        0       
     2 = max # of 1-2 neighbors
     1 = max # of 1-3 neighbors
     1 = max # of 1-4 neighbors
     2 = max # of special neighbors
  special bonds CPU = 0.001 seconds
  read_restart CPU = 0.005 seconds

kspace_style   pppm 1.0e-5

group oxygen type 1
1000 atoms in group oxygen

#======================
neighbor        2.0 bin
neigh_modify    every 1 delay 1 check yes
#======================

#reset_timestep 0
timestep 1.0

fix            1 all shake 0.0001 20 0 b 1 a 1
       0 = # of size 2 clusters
       0 = # of size 3 clusters
       0 = # of size 4 clusters
    1000 = # of frozen angles
  find clusters CPU = 0.001 seconds
fix            2 all npt temp 300.0 300.0 100.0 iso 1.0 1.0 1000.0
Resetting global fix info from restart file:
  fix style: npt, fix ID: 2
fix            3 all momentum 1 linear 1 1 1
fix	       xwall1 all wall/lj93 xlo EDGE 1.0 1.0 2.5 pbc yes
fix	       xwall2 all wall/lj93 xhi EDGE 1.0 1.0 2.5 pbc yes
fix	       ywall1 all wall/lj93 ylo EDGE 1.0 1.0 2.5 pbc yes
fix	       ywall2 all wall/lj93 yhi EDGE 1.0 1.0 2.5 pbc yes
fix	       zwall1 all wall/lj93 zlo EDGE 1.0 1.0 2.5 pbc yes
fix	       zwall2 all wall/lj93 zhi EDGE 1.0 1.0 2.5 pbc yes

compute	MSD oxygen msd com no
fix 4 oxygen ave/time 1 1 500 c_MSD[4] file ../spc10.msd

thermo 100
thermo_style custom step temp pe etotal press enthalpy lx ly lz pxx pyy pzz
thermo_modify flush yes


dump         2 all custom 1000 md2.lammpstrj id type x y z
#dump_modify  1 unwrap yes
run 100000
PPPM initialization ...
  using 12-bit tables for long-range coulomb (src/kspace.cpp:342)
  G vector (1/distance) = 0.30164588
  grid = 27 27 27
  stencil order = 5
  estimated absolute RMS force accuracy = 0.0033000726
  estimated relative force accuracy = 9.9380706e-06
  using double precision FFTW3
  3d grid and FFT values/proc = 39304 19683
Generated 0 of 1 mixed pair_coeff terms from geometric mixing rule
All restart file global fix info was re-assigned
Neighbor list info ...
  update every 1 steps, delay 1 steps, check yes
  max neighbors/atom: 2000, page size: 100000
  master list distance cutoff = 12
  ghost atom cutoff = 12
  binsize = 6, bins = 6 6 6
  1 neighbor lists, perpetual/occasional/extra = 1 0 0
  (1) pair lj/cut/coul/long, perpetual
      attributes: half, newton on
      pair build: half/bin/newton
      stencil: half/bin/3d
      bin: standard
Per MPI rank memory allocation (min/avg/max) = 17.04 | 17.04 | 17.04 Mbytes
   Step          Temp          PotEng         TotEng         Press         Enthalpy          Lx             Ly             Lz            Pxx            Pyy            Pzz      
      1000   295.47061     -9224.8567     -7464.2539     -3623.7675     -9276.7097      32.489553      32.489553      32.489553     -3585.938      -3633.8767     -3651.4877    
      1100   316.61111     -9210.2468     -7323.6753     -1505.3895     -8067.8741      32.363444      32.363444      32.363444     -915.71476     -1377.718      -2222.7356    
      1200   317.08785     -9232.5235     -7343.1114     -1340.7346     -7996.722       32.213171      32.213171      32.213171     -1339.074      -1625.2983     -1057.8313    
      1300   300.76178     -9332.0112     -7539.8802     -1092.7614     -8065.0308      32.059805      32.059805      32.059805     -662.95687     -1735.741      -879.58631    
      1400   297.39975     -9485.4651     -7713.3673     -1271.7506     -8317.0043      31.927579      31.927579      31.927579     -1377.7938     -1181.2956     -1256.1625    
      1500   292.13424     -9584.3477     -7843.6252     -1177.4779     -8396.0038      31.803096      31.803096      31.803096     -1217.6385     -1528.5228     -786.27237    
      1600   288.6304      -9618.8917     -7899.0472     -838.01302     -8287.6686      31.681083      31.681083      31.681083     -1054.3118     -784.2683      -675.45893    
      1700   289.81974     -9612.2231     -7885.2919      670.69332     -7577.0393      31.586555      31.586555      31.586555      982.4162       1450.5007     -420.83697    
      1800   308.05135     -9670.1295     -7834.5626      408.53916     -7647.2593      31.560606      31.560606      31.560606      536.42837     -53.290808      742.47993    
      1900   308.77653     -9738.4346     -7898.5466      274.76086     -7772.5864      31.559796      31.559796      31.559796      89.149716      589.49368      145.6392     
      2000   287.75069     -9738.9995     -8024.3969     -31.96459      -8039.0631      31.568726      31.568726      31.568726     -206.95071     -120.5257       231.58264    
      2100   291.36444     -9794.1169     -8057.9813     -296.98534     -8194.2117      31.56611       31.56611       31.56611      -95.541445     -354.242       -441.17257    
      2200   301.7921      -9805.9546     -8007.6843     -163.70186     -8082.6011      31.541567      31.541567      31.541567      414.54283     -483.86931     -421.7791     
      2300   305.0388      -9766.2122     -7948.596       136.09849     -7886.4324      31.521168      31.521168      31.521168     -495.15223      147.33161      756.11609    
      2400   301.72301     -9747.37       -7949.5114      546.80168     -7699.6884      31.524067      31.524067      31.524067     -15.080621      269.33246      1386.1532    
      2500   298.834       -9718.345      -7937.701       428.01244     -7741.4398      31.562207      31.562207      31.562207      393.92523     -110.05383      1000.1659    
      2600   295.86353     -9708.5622     -7945.6181      113.08913     -7893.5465      31.605897      31.605897      31.605897      669.69383     -910.86001      580.43357    
      2700   298.5156      -9707.5011     -7928.7543     -197.40707     -8019.8645      31.630749      31.630749      31.630749     -30.26851      -480.68229     -81.270409    
      2800   297.72961     -9691.7537     -7917.6903     -412.74775     -8108.3365      31.638983      31.638983      31.638983     -956.52123      6.6153755     -288.33741    
      2900   303.53429     -9698.7865     -7890.1351      78.22312      -7854.0651      31.62119       31.62119       31.62119       139.35227     -147.66853      242.98562    
      3000   305.09673     -9694.3346     -7876.3733      296.5821      -7739.67        31.616904      31.616904      31.616904     -377.53629      403.03877      864.24383    
      3100   298.46702     -9697.2043     -7918.747      -192.96397     -8007.811       31.63128       31.63128       31.63128      -607.00607     -440.57541      468.68956    
      3200   298.80399     -9708.0289     -7927.5637      457.77863     -7716.1681      31.63648       31.63648       31.63648       106.02111      463.38585      803.92892    
      3300   300.8242      -9722.7723     -7930.2693     -54.775654     -7955.6136      31.657169      31.657169      31.657169     -508.4229       257.87363      86.222307    
      3400   304.88941     -9767.9283     -7951.2023     -879.07149     -8357.8576      31.654986      31.654986      31.654986     -281.70129     -1390.0908     -965.42241    
      3500   287.97415     -9727.1892     -8011.2551     -124.0191      -8068.4109      31.615394      31.615394      31.615394     -453.43468     -341.5305       422.90786    
      3600   297.54834     -9739.9915     -7967.0083      221.32078     -7865.4476      31.570094      31.570094      31.570094      178.04549      856.65096     -370.73411    
      3700   310.7773      -9758.2248     -7906.415       559.59152     -7650.1865      31.547152      31.547152      31.547152      670.45513      1202.3193     -193.99985    
      3800   301.84418     -9719.5435     -7920.9629      312.75507     -7777.3156      31.57954       31.57954       31.57954      -152.92434      759.54702      331.64253    
      3900   292.89472     -9713.3612     -7968.1072     -391.57104     -8148.7135      31.623906      31.623906      31.623906     -758.70369      58.436878     -474.44631    
      4000   299.12636     -9782.047      -7999.661      -23.98208      -8010.7379      31.638766      31.638766      31.638766      329.1866      -175.08943     -226.04341    
      4100   304.28225     -9806.8806     -7993.7724     -288.5504      -8126.9995      31.634793      31.634793      31.634793      8.4007186     -448.29611     -425.75579    
      4200   301.53018     -9781.912      -7985.2025      25.020715     -7973.665       31.621236      31.621236      31.621236     -67.162906      355.45712     -213.23207    
      4300   301.18861     -9783.2647     -7988.5904      68.639351     -7956.9612      31.614041      31.614041      31.614041      63.360536      133.10331      9.4542065    
      4400   294.71183     -9738.762      -7982.6805     -70.578004     -8015.172       31.603945      31.603945      31.603945      279.29729     -0.59338381    -490.43792    
      4500   298.91445     -9796.2205     -8015.0971     -99.506252     -8060.7998      31.579509      31.579509      31.579509     -310.69549      139.43467     -127.25793    
      4600   299.72193     -9857.776      -8071.8411      552.38355     -7818.8091      31.55147       31.55147       31.55147       942.28414      484.93563      229.93087    
      4700   300.32103     -9909.5623     -8120.0577     -300.23231     -8257.5267      31.546935      31.546935      31.546935     -810.46817      263.18655     -353.41532    
      4800   295.31412     -9879.8016     -8120.1313      146.59574     -8053.0266      31.544123      31.544123      31.544123      55.076506      109.76471      274.946      
      4900   298.19814     -9872.4012     -8095.5461      205.5633      -8001.5284      31.535236      31.535236      31.535236     -241.56954      141.13222      717.12723    
      5000   300.76963     -9882.0424     -8089.8647     -62.401941     -8118.3982      31.532649      31.532649      31.532649     -256.23282      136.08054     -67.053549    
      5100   297.84163     -9865.7753     -8091.0445      346.11533     -7932.6981      31.538215      31.538215      31.538215      337.50078      300.51398      400.33122    
      5200   298.5429      -9857.4897     -8078.5803     -5.9826879     -8081.3221      31.556491      31.556491      31.556491     -1318.603      -80.461811      1381.1167    
      5300   306.13528     -9929.8622     -8105.7125     -363.00757     -8272.086       31.557133      31.557133      31.557133      90.281012     -547.28909     -632.01463    
      5400   292.54393     -9886.0565     -8142.8927     -327.25029     -8292.6681      31.542405      31.542405      31.542405     -624.14088     -454.45164      96.841652    
      5500   300.83746     -9882.9714     -8090.3895      345.9831      -7932.518       31.51067       31.51067       31.51067       196.15169      456.8316       384.96601    
      5600   310.45899     -9895.9001     -8045.987      -126.20292     -8103.4347      31.485389      31.485389      31.485389     -507.36992      605.3095      -476.54835    
      5700   298.18497     -9860.9931     -8084.2164     -493.93045     -8308.5651      31.46255       31.46255       31.46255      -797.58527     -519.23268     -164.97341    
      5800   302.45374     -9952.8027     -8150.59        138.94655     -8087.6616      31.432171      31.432171      31.432171      343.43481     -270.23822      343.64307    
      5900   297.64769     -9991.5407     -8217.9654     -369.38757     -8384.9518      31.412867      31.412867      31.412867     -294.98664     -504.49054     -308.68552    
      6000   290.34979     -9945.8887     -8215.799       573.46636     -7956.9243      31.397993      31.397993      31.397993     -66.363911      854.75972      932.00326    
      6100   298.34695     -9942.8431     -8165.1012      596.21421     -7895.7388      31.406506      31.406506      31.406506      1004.8933      1291.4823     -507.7329     
      6200   301.51682     -9936.8443     -8140.2143      518.72774     -7905.0051      31.44462       31.44462       31.44462       402.17491      112.84376      1041.1645    
      6300   302.596       -9927.884      -8124.8236     -67.409562     -8155.5737      31.507676      31.507676      31.507676     -458.33667      495.98484     -239.87685    
      6400   299.33642     -9891.994      -8108.3562     -505.18278     -8340.0688      31.565191      31.565191      31.565191     -981.45814     -316.58854     -217.50165    
      6500   294.75922     -9870.1532     -8113.7893     -80.951682     -8151.0195      31.593488      31.593488      31.593488     -289.53291     -214.10582      260.78368    
      6600   308.1857      -9935.0338     -8098.6664     -324.97852     -8248.2356      31.601223      31.601223      31.601223      396.06392     -770.5964      -600.40307    
      6700   304.19981     -9950.563      -8137.946      -227.55932     -8242.5073      31.583978      31.583978      31.583978     -982.57246     -247.41695      547.31143    
      6800   289.56739     -9895.8377     -8170.4101      132.88227     -8109.5508      31.549661      31.549661      31.549661      325.02188      190.63986     -117.01495    
      6900   306.46901     -9984.8127     -8158.6744     -147.02243     -8225.7911      31.515466      31.515466      31.515466      103.55464     -319.54769     -225.07426    
      7000   299.22792     -9969.9405     -8186.9492      85.252378     -8148.173       31.477079      31.477079      31.477079      744.30321     -468.17072     -20.375348    
      7100   297.14997     -9959.2771     -8188.6676      400.4617      -8006.9074      31.45483       31.45483       31.45483       532.15597     -276.82793      946.05704    
      7200   295.55876     -9879.5826     -8118.4546      485.7567      -7897.8504      31.461037      31.461037      31.461037     -369.80914      1108.4075      718.67174    
      7300   305.76725     -9844.1162     -8022.1594      142.95074     -7957.0773      31.487144      31.487144      31.487144      618.97863      70.401357     -260.52776    
      7400   298.87941     -9804.1455     -8023.2309      266.79581     -7901.4512      31.514235      31.514235      31.514235      400.41984     -28.033336      428.00094    
      7500   309.06773     -9905.7161     -8064.093       79.07218      -8027.8726      31.551352      31.551352      31.551352     -97.435781     -33.651823      368.30414    
      7600   293.04906     -9954.6165     -8208.4428     -648.39029     -8506.332       31.582567      31.582567      31.582567     -1055.5478      236.63129     -1126.2543    
      7700   293.16561     -9984.4125     -8237.5444     -453.38601     -8445.6195      31.571267      31.571267      31.571267     -36.55783      -370.27943     -953.32076    
      7800   295.87337     -9965.2425     -8202.2398      228.9951      -8097.5073      31.535022      31.535022      31.535022      262.78272      499.25175     -75.049179    
      7900   301.03882     -9949.0211     -8155.2394      785.9923      -7796.7957      31.504717      31.504717      31.504717      1145.7552      311.59949      900.62225    
      8000   300.80803     -9917.7235     -8125.317      -87.47796      -8165.2478      31.514558      31.514558      31.514558      669.29139      267.69015     -1199.4154    
      8100   297.98921     -9893.2447     -8117.6345      236.76299     -8009.4073      31.529386      31.529386      31.529386      1122.0446      363.70204     -775.45767    
      8200   298.33315     -9919.1045     -8141.4449      162.5872      -8066.9207      31.558163      31.558163      31.558163      45.779562      818.4885      -376.50647    
      8300   293.86942     -9885.642      -8134.5802     -534.1904      -8380.212       31.591549      31.591549      31.591549     -49.231346     -629.06457     -924.2753     
      8400   298.17852     -9902.9923     -8126.2541     -683.14057     -8440.1802      31.584971      31.584971      31.584971     -826.64005     -518.38358     -704.39808    
      8500   301.09533     -9916.7327     -8122.6143      5.8780179     -8119.9223      31.549282      31.549282      31.549282      242.62607      366.82335     -591.81537    
      8600   299.82545     -9909.7981     -8123.2464     -31.370753     -8137.5732      31.519745      31.519745      31.519745      323.60341      143.55599     -561.27166    
      8700   308.23989     -9921.0891     -8084.3988      321.72752     -7937.8029      31.495793      31.495793      31.495793      185.41275      379.24488      400.52492    
      8800   311.70823     -9941.1921     -8083.8352      295.86211     -7948.9738      31.499772      31.499772      31.499772      1031.8699     -321.94675      177.66317    
      8900   293.35887     -9920.648      -8172.6283     -453.54146     -8379.9441      31.529216      31.529216      31.529216     -106.77634     -542.20407     -711.64398    
      9000   293.6877      -9951.0246     -8201.0455     -875.56625     -8601.7594      31.542043      31.542043      31.542043     -1083.8724     -1156.3158     -386.51051    
      9100   304.97661     -9964.1885     -8146.9429     -207.61795     -8241.796       31.523682      31.523682      31.523682     -138.12755      145.18276     -629.90906    
      9200   310.7941      -9913.1709     -8061.261       401.37561     -7878.0798      31.512632      31.512632      31.512632      963.17145      186.30281      54.652567    
      9300   305.83        -9908.8022     -8086.4715     -143.66944     -8152.1364      31.528083      31.528083      31.528083     -1012.2697      142.0859       439.17546    
      9400   289.22545     -9871.8385     -8148.4483     -139.66174     -8212.3436      31.538318      31.538318      31.538318     -105.19075      11.862473     -325.65695    
      9500   299.78851     -9939.0216     -8152.69       -111.63201     -8203.7155      31.528811      31.528811      31.528811     -319.42562      550.09953     -565.56994    
      9600   299.02533     -9918.0699     -8136.2859      520.05398     -7898.6714      31.524594      31.524594      31.524594      434.23391      488.41945      637.50858    
      9700   301.93567     -9896.0733     -8096.9475     -302.55641     -8235.5482      31.552061      31.552061      31.552061     -95.799972     -347.16707     -464.70218    
      9800   304.995       -9895.8388     -8078.4836     -288.92483     -8211.169       31.578201      31.578201      31.578201     -453.00061     -34.731087     -379.0428     
      9900   304.33573     -9866.179      -8052.7521     -587.827       -8323.0628      31.592157      31.592157      31.592157      36.728581     -71.789148     -1728.4204    
     10000   300.46009     -9836.6042     -8046.2709     -29.654776     -8059.8957      31.58298       31.58298       31.58298       33.335366     -454.75414      332.45445    
     10100   309.1625      -9888.0854     -8045.8975     -467.37589     -8260.3002      31.56671       31.56671       31.56671      -582.35634     -78.227526     -741.54381    
     10200   292.63541     -9830.2182     -8086.5094     -270.74087     -8210.1731      31.521301      31.521301      31.521301     -735.14156     -29.395285     -47.685755    
     10300   296.48576     -9831.1187     -8064.467       231.81811     -7959.2815      31.451708      31.451708      31.451708     -114.61648      293.23954      516.83127    
     10400   305.31155     -9879.0211     -8059.7797      792.98851     -7701.5957      31.404205      31.404205      31.404205      1222.5138      920.09664      236.35508    
     10500   295.46037     -9866.0734     -8105.5317      579.66842     -7843.3851      31.41687       31.41687       31.41687       729.35977      624.72859      384.9169     
     10600   304.54698     -9953.6066     -8138.921      -678.59669     -8447.1278      31.461896      31.461896      31.461896     -427.55552     -128.9027      -1479.3318    
     10700   296.87584     -9941.1873     -8172.2113      6.2526271     -8169.3656      31.483403      31.483403      31.483403      162.26637     -315.04591      171.53742    
     10800   299.79854     -9946.8435     -8160.4522     -91.835587     -8202.2831      31.492236      31.492236      31.492236      434.19104     -106.54329     -603.15451    
     10900   304.77888     -9932.563      -8116.4956     -399.61409     -8298.7512      31.505626      31.505626      31.505626      349.08306     -530.43549     -1017.4898    
     11000   299.79343     -9905.7389     -8119.378       292.04337     -7986.0115      31.519151      31.519151      31.519151      46.472731      334.61924      495.03813    
     11100   300.3692      -9905.9529     -8116.1611     -733.22451     -8451.3766      31.53095       31.53095       31.53095      -254.33635     -706.53507     -1238.8021    
     11200   293.60325     -9868.9441     -8119.4683      314.86328     -7975.9794      31.497309      31.497309      31.497309      443.04869      338.06301      163.47813    
     11300   302.89442     -9903.6438     -8098.8052      435.0332      -7900.9579      31.475835      31.475835      31.475835      630.39684      522.70933      151.99343    
     11400   302.60932     -9928.9676     -8125.8278     -654.40957     -8423.3401      31.472153      31.472153      31.472153     -762.69716     -533.35017     -667.18137    
     11500   297.30603     -9912.4153     -8140.8759      135.03421     -8079.7002      31.435455      31.435455      31.435455      362.5167       491.55834     -448.97241    
     11600   304.52977     -9949.9856     -8135.4026      642.17455     -7845.5173      31.397788      31.397788      31.397788      430.77966      403.72762      1092.0164    
     11700   299.65251     -9931.4007     -8145.8795      1050.4525     -7671.5426      31.4011        31.4011        31.4011        593.20686      1270.0086      1288.1419    
     11800   294.80619     -9954.7296     -8198.0859      111.28924     -8147.5253      31.464981      31.464981      31.464981      360.68457      6.4825082     -33.299359    
     11900   290.74096     -9944.206      -8211.7855     -427.08551     -8406.9612      31.526688      31.526688      31.526688     -480.21825     -358.04829     -442.98998    
     12000   294.64409     -9896.6598     -8140.982      -244.39455     -8252.9093      31.549292      31.549292      31.549292     -15.023155     -825.13572      106.97522    
     12100   306.3812      -9922.6511     -8097.0361     -187.5738      -8182.7842      31.530117      31.530117      31.530117      98.417186      320.27566     -981.41424    
     12200   300.45804     -9899.947      -8109.6259      190.79543     -8022.7147      31.492757      31.492757      31.492757     -181.65288      209.08539      544.95378    
     12300   302.61521     -9943.7166     -8140.5417      55.337981     -8115.4147      31.459165      31.459165      31.459165      189.465       -99.719626      76.268568    
     12400   296.88706     -9938.3014     -8169.2585     -449.47557     -8372.85        31.433485      31.433485      31.433485     -802.48932      284.7726      -830.70998    
     12500   298.92439     -9923.0308     -8141.8482     -18.198127     -8150.0594      31.39314       31.39314       31.39314       477.07634      235.57329     -767.24401    
     12600   313.54728     -9957.211      -8088.8959      529.40841     -7850.8781      31.355534      31.355534      31.355534      738.98665      151.05982      698.17875    
     12700   304.43201     -9963.9511     -8149.9506     -493.09018     -8371.3124      31.340083      31.340083      31.340083     -120.32774     -616.63089     -742.31192    
     12800   296.76998     -9950.0369     -8181.6917      139.24897     -8119.3752      31.307261      31.307261      31.307261      545.11705     -32.514827     -94.855326    
     12900   299.08222     -9940.6602     -8158.5371      12.023007     -8153.1693      31.282519      31.282519      31.282519      724.37959     -327.4248      -360.88577    
     13000   308.89045     -9971.2269     -8130.6602      274.12741     -8008.2507      31.284481      31.284481      31.284481      185.38801      554.81648      82.177731    
     13100   298.59708     -9915.9816     -8136.7493      202.33825     -8045.9921      31.331112      31.331112      31.331112     -69.511964      108.98261      567.5441     
     13200   294.46028     -9914.9821     -8160.3994     -23.502195     -8171.0075      31.396705      31.396705      31.396705     -394.13221     -110.62566      434.25129    
     13300   291.57579     -9960.2095     -8222.8145     -152.51522     -8292.1226      31.467697      31.467697      31.467697      112.62042     -749.26465      179.09857    
     13400   298.21419     -9969.9192     -8192.9684     -465.48143     -8405.5265      31.518567      31.518567      31.518567     -555.04502     -310.84133     -530.55795    
     13500   299.50091     -9910.43       -8125.8121     -1033.7809     -8598.3778      31.529656      31.529656      31.529656     -1100.0706     -980.99983     -1020.2724    
     13600   308.17032     -9943.1244     -8106.8487     -365.66995     -8273.3371      31.487608      31.487608      31.487608     -290.67544      372.57997     -1178.9144    
     13700   293.83811     -9862.6604     -8111.7851      840.49659     -7730.9993      31.435688      31.435688      31.435688      638.10827      783.25137      1100.1301    
     13800   295.54593     -9849.132      -8088.0804      186.04868     -8003.9871      31.41133       31.41133       31.41133      -174.49016      724.4877       8.1484964    
     13900   302.60904     -9883.84       -8080.7018      500.22072     -7855.0814      31.389204      31.389204      31.389204      469.56177      16.826067      1014.2743    
     14000   308.79258     -9929.5353     -8089.5517      493.4918      -7866.7455      31.399579      31.399579      31.399579      430.30838      559.89262      490.27441    
     14100   294.55965     -9867.2389     -8112.0642      256.37868     -7995.8778      31.438794      31.438794      31.438794      289.02932      241.76568      238.34104    
     14200   302.09896     -9894.4979     -8094.3992     -37.660515     -8111.5384      31.483017      31.483017      31.483017     -361.02385      608.01658     -359.97428    
     14300   312.53024     -9940.3238     -8078.0688     -185.12362     -8162.5685      31.514173      31.514173      31.514173     -419.61584      233.73213     -369.48717    
     14400   298.18788     -9888.0079     -8111.2139     -11.703311     -8116.5653      31.532722      31.532722      31.532722     -315.17192      27.421605      252.64038    
     14500   298.81051     -9925.3105     -8144.8065     -51.355387     -8168.2826      31.529825      31.529825      31.529825      34.874601      73.8783       -262.81906    
     14600   291.03036     -9930.4111     -8196.2662     -161.41055     -8269.9333      31.512923      31.512923      31.512923     -49.070189      445.12767     -880.28912    
     14700   298.65875     -9969.0483     -8189.4485      76.614248     -8154.5442      31.49424       31.49424       31.49424       452.08795      84.540551     -306.78575    
     14800   301.24735     -9941.8314     -8146.8071      52.09976      -8123.0901      31.485902      31.485902      31.485902     -768.97844      6.870083       918.40763    
     14900   300.7454      -9859.5314     -8067.498       437.49519     -7868.2886      31.488615      31.488615      31.488615      78.591298      1484.8696     -250.97536    
     15000   300.37352     -9845.2744     -8055.457      -270.84413     -8178.9958      31.506687      31.506687      31.506687      119.93641     -361.95896     -570.50985    
     15100   299.07685     -9869.9727     -8087.8816      119.93829     -8033.2077      31.500355      31.500355      31.500355      92.170277      232.02558      35.619022    
     15200   296.9556      -9931.8934     -8162.4421      195.32543     -8073.4819      31.49104       31.49104       31.49104      -191.76983      617.78336      159.96276    
     15300   289.32475     -9932.861      -8208.8791      473.38073     -7993.1494      31.497384      31.497384      31.497384     -133.62883      473.25111      1080.5199    
     15400   296.89969     -9936.5535     -8167.4354      263.95833     -8046.6602      31.539543      31.539543      31.539543      32.130713      879.96339     -120.21911    
     15500   300.84156     -9914.1939     -8121.5876     -1101.1537     -8627.261       31.577817      31.577817      31.577817     -1393.2774     -1189.9902     -720.19341    
     15600   299.03166     -9876.5594     -8094.7377      285.2186      -7964.0669      31.553064      31.553064      31.553064      160.04805      255.64124      439.9665     
     15700   304.57638     -9905.7155     -8090.8547     -202.55885     -8183.4727      31.532336      31.532336      31.532336     -811.06297      539.61426     -336.22784    
     15800   291.72356     -9834.5368     -8096.2613     -323.19885     -8243.632       31.503232      31.503232      31.503232     -474.63444     -509.98411      15.022012    
     15900   299.36747     -9839.445      -8055.6222     -54.755037     -8080.5072      31.468759      31.468759      31.468759     -268.89449      76.229884      28.399491    
     16000   308.13834     -9883.2023     -8047.1171      355.96612     -7885.7451      31.442318      31.442318      31.442318      192.9157       295.1091       579.87358    
     16100   310.87458     -9924.252      -8071.8625      213.40431     -7975.1945      31.43412       31.43412       31.43412       274.94043      791.26314     -425.99063    
     16200   304.34031     -9917.7879     -8104.3338     -99.825033     -8149.6846      31.46466       31.46466       31.46466      -195.73763     -439.1662       335.42873    
     16300   294.16754     -9873.5712     -8120.733      -52.592057     -8144.7297      31.51023       31.51023       31.51023      -166.83404      224.46782     -215.40995    
     16400   297.33406     -9868.7854     -8097.079      -607.35062     -8374.8093      31.533292      31.533292      31.533292     -1170.5246     -429.77994     -221.7473     
     16500   299.89034     -9821.9844     -8035.046      -72.933008     -8068.3529      31.519408      31.519408      31.519408     -180.77988      521.01136     -559.03051    
     16600   307.49276     -9865.42       -8033.1815     -717.19882     -8360.0614      31.498576      31.498576      31.498576      119.74395     -1092.2118     -1179.1286    
     16700   301.53948     -9881.1727     -8084.4077     -299.45726     -8220.1561      31.441843      31.441843      31.441843     -357.94374     -84.553833     -455.8742     
     16800   301.11295     -9932.4385     -8138.215       1093.8367     -7646.3097      31.358194      31.358194      31.358194      1065.5669      1117.5087      1098.4343    
     16900   300.57379     -9952.6488     -8161.638       575.28898     -7903.7746      31.323908      31.323908      31.323908      615.78939      935.5715       174.50605    
     17000   301.19997     -9979.3852     -8184.6432      154.01418     -8115.4749      31.344179      31.344179      31.344179     -168.34493      573.041        57.346475    
     17100   302.48411     -10050.096     -8247.7023     -495.44918     -8471.0362      31.382909      31.382909      31.382909     -1124.4779     -384.71086      22.841248    
     17200   289.43117     -9975.7168     -8251.1008     -409.60219     -8436.0709      31.401792      31.401792      31.401792     -1007.0181     -30.132231     -191.65628    
     17300   297.04767     -9931.8572     -8161.8573      134.13416     -8101.322       31.395296      31.395296      31.395296     -78.238774      86.476656      394.16459    
     17400   297.29778     -9910.9919     -8139.5016      197.55858     -8050.4129      31.387038      31.387038      31.387038      69.053506      185.56269      338.05955    
     17500   297.38283     -9861.6899     -8089.6929      231.61635     -7985.1039      31.401246      31.401246      31.401246     -123.54855      727.07043      91.327186    
     17600   298.13115     -9852.0902     -8075.6342     -26.109847     -8087.4572      31.430394      31.430394      31.430394      808.81189     -255.14798     -631.99345    
     17700   298.19176     -9849.2315     -8072.4143      501.44799     -7844.5922      31.465261      31.465261      31.465261      842.5798       399.13328      262.63088    
     17800   312.15251     -9892.4386     -8032.4344     -647.77394     -8328.0287      31.511245      31.511245      31.511245     -511.551       -376.12419     -1055.6466    
     17900   307.86637     -9873.2645     -8038.7998     -67.568747     -8069.7071      31.536475      31.536475      31.536475      156.01291      616.15757     -974.87672    
     18000   298.58696     -9883.4966     -8104.3247     -251.16349     -8219.4508      31.558317      31.558317      31.558317     -416.3299      -612.78538      275.62479    
     18100   302.2447      -9923.1513     -8122.1842     -215.20546     -8220.8551      31.561188      31.561188      31.561188     -183.24984     -398.62835     -63.7382      
     18200   295.6197      -9913.4532     -8151.962      -510.53596     -8385.6734      31.544663      31.544663      31.544663     -615.27087     -586.91147     -329.42555    
     18300   303.04369     -9920.1995     -8114.4714     -251.91797     -8229.4059      31.509282      31.509282      31.509282     -243.27971      238.48619     -750.96039    
     18400   307.92873     -9896.5796     -8061.7434     -61.669131     -8089.7591      31.464396      31.464396      31.464396     -465.44829     -291.5106       571.9515     
     18500   301.75178     -9876.3512     -8078.3212      504.0085      -7850.3686      31.417884      31.417884      31.417884      67.761886      1671.267      -227.00341    
     18600   304.87071     -9933.6652     -8117.0506      696.9457      -7801.8465      31.417552      31.417552      31.417552      117.9397       776.91916      1195.9782    
     18700   303.86977     -9984.1856     -8173.5352     -368.6732      -8341.0674      31.467355      31.467355      31.467355     -628.05657     -188.62834     -289.33469    
     18800   301.73868     -9973.1242     -8175.1723     -468.86763     -8389.1002      31.509907      31.509907      31.509907     -148.58444     -747.98761     -510.03085    
     18900   293.34617     -9872.9803     -8125.0363     -403.66543     -8309.5921      31.531413      31.531413      31.531413     -891.66127      246.62361     -565.95863    
     19000   295.33337     -9817.6404     -8057.8554     -275.53332     -8183.6462      31.516138      31.516138      31.516138     -238.88065     -495.72039     -91.998921    
     19100   301.62237     -9851.1176     -8053.8587      483.45406     -7833.8546      31.482307      31.482307      31.482307      834.43024      338.57088      277.36105    
     19200   300.46564     -9841.1595     -8050.7932      255.59744     -7934.5308      31.477645      31.477645      31.477645      563.35182      190.65775      12.782735    
     19300   303.16883     -9857.138      -8050.6643     -562.24831     -8306.6958      31.489307      31.489307      31.489307     -548.47122     -573.48889     -564.78481    
     19400   297.08036     -9866.5575     -8096.3629     -422.54978     -8288.4246      31.469926      31.469926      31.469926     -237.69154     -794.07064     -235.88717    
     19500   302.3984      -9922.2207     -8120.3377     -55.107078     -8145.2815      31.426257      31.426257      31.426257      784.41506     -416.40499     -533.33131    
     19600   304.46477     -9906.593      -8092.3972      257.95131     -7976.0068      31.393128      31.393128      31.393128      402.82669      71.20357       299.82368    
     19700   311.03142     -9927.3991     -8074.075       336.75905     -7922.0649      31.397309      31.397309      31.397309      707.57858     -525.35022      828.0488     
     19800   307.90789     -9891.369      -8056.6569     -277.87388     -8182.5727      31.437806      31.437806      31.437806      35.572862     -460.70384     -408.49066    
     19900   298.54658     -9893.3744     -8114.443       112.15332     -8063.4149      31.480416      31.480416      31.480416     -415.97753      317.05967      435.37782    
     20000   289.32509     -9864.8813     -8140.8974     -84.143709     -8179.3034      31.513783      31.513783      31.513783     -237.57257     -252.22663      237.36808    
     20100   298.70174     -9880.6787     -8100.8228     -378.6835      -8274.0107      31.534685      31.534685      31.534685     -762.99881      19.404871     -392.45656    
     20200   300.08983     -9851.5252     -8063.3982     -183.85721     -8147.4134      31.525882      31.525882      31.525882     -432.45625     -619.45534      500.33995    
     20300   302.13689     -9865.7191     -8065.3943      112.7748      -8014.0373      31.489842      31.489842      31.489842      288.35401     -375.91637      425.88676    
     20400   298.66535     -9874.7425     -8095.1034      57.457837     -8069.0067      31.462028      31.462028      31.462028      155.31337     -39.268465      56.328606    
     20500   293.82274     -9899.2129     -8148.4291      117.88146     -8094.9664      31.446805      31.446805      31.446805      202.78043      73.193058      77.670875    
     20600   294.10539     -9940.8853     -8188.4174     -217.78756     -8287.0418      31.431017      31.431017      31.431017     -425.32686     -550.3453       322.30948    
     20700   297.70304     -9920.1186     -8146.2136      499.32019     -7920.3443      31.419605      31.419605      31.419605      643.38907      820.44629      34.125209    
     20800   297.53932     -9845.6789     -8072.7494     -28.792485     -8085.795       31.436617      31.436617      31.436617     -518.74682     -101.07236      533.44173    
     20900   296.31364     -9826.9879     -8061.3618     -270.73345     -8184.0331      31.437047      31.437047      31.437047      45.136789     -356.34902     -500.98811    
     21000   308.60402     -9878.0219     -8039.1619     -44.39486      -8059.2166      31.405273      31.405273      31.405273      489.03965     -686.10392      63.879691    
     21100   301.99497     -9905.8665     -8106.3874     -68.453228     -8137.2107      31.371597      31.371597      31.371597     -64.607228     -232.61917      91.866711    
     21200   299.85984     -9954.4064     -8167.6498      139.23182     -8105.0879      31.349598      31.349598      31.349598      54.280472     -151.5247       514.93967    
     21300   292.6087      -9932.868      -8189.3183      817.55031     -7821.9817      31.349065      31.349065      31.349065      26.947947      1523.4721      902.23085    
     21400   300.04778     -9985.2971     -8197.4206      162.51101     -8124.1387      31.386735      31.386735      31.386735     -342.54803      639.289        190.79206    
     21500   287.98642     -9922.6408     -8206.6336     -138.50126     -8269.4217      31.442417      31.442417      31.442417     -169.41165     -27.73336      -218.35877    
     21600   304.51603     -9943.4434     -8128.9423     -537.13296     -8373.1978      31.474745      31.474745      31.474745     -883.29481     -949.21387      221.10979    
     21700   299.36431     -9885.5036     -8101.6997     -60.067745     -8128.9743      31.459157      31.459157      31.459157      98.446394     -481.13751      202.48788    
     21800   299.47676     -9876.254      -8091.7801     -128.14705     -8149.8136      31.431476      31.431476      31.431476      444.25397     -988.18253      159.48742    
     21900   303.97887     -9931.3228     -8120.0223      339.21572     -7966.7681      31.406547      31.406547      31.406547      642.42604      435.70618     -60.48506     
     22000   295.01797     -9963.1672     -8205.2615     -124.60857     -8261.4898      31.393781      31.393781      31.393781      365.67996      250.86803     -990.3737     
     22100   304.3738      -9994.3512     -8180.6975     -215.88962     -8277.9625      31.37735       31.37735       31.37735      -356.6864      -466.83206      175.84961    
     22200   296.93157     -9955.4704     -8186.1622     -118.02995     -8239.2268      31.355393      31.355393      31.355393      41.784046     -347.49641     -48.377476    
     22300   296.13798     -9968.3652     -8203.7857      409.0085      -8020.2297      31.336716      31.336716      31.336716      158.95705      715.90061      352.16784    
     22400   308.14144     -9989.885      -8153.7813      171.22175     -8076.949       31.335469      31.335469      31.335469      266.50377     -230.66829      477.82979    
     22500   307.75647     -9914.4217     -8080.6119      407.81711     -7897.3721      31.349178      31.349178      31.349178     -86.789329     -204.37759      1514.6183    
     22600   299.35685     -9860.8004     -8077.0409      187.2661      -7992.5531      31.39205       31.39205       31.39205       355.77325      197.61531      8.4097427    
     22700   294.86446     -9890.4534     -8133.4624     -23.223292     -8144.0004      31.452334      31.452334      31.452334     -0.26928608     140.86603     -210.26662    
     22800   296.15754     -9931.9966     -8167.3007     -520.28018     -8404.3584      31.495392      31.495392      31.495392     -787.76546     -674.71306     -98.362009    
     22900   298.34332     -9927.7367     -8150.0165      117.88258     -8096.305       31.495417      31.495417      31.495417      191.68634      71.756166      90.205233    
     23000   300.27066     -9937.0321     -8147.8275     -141.63384     -8212.3816      31.49876       31.49876       31.49876      -226.42148     -474.11788      275.63784    
     23100   297.87968     -9914.6165     -8139.6589      70.053175     -8107.7416      31.494968      31.494968      31.494968     -105.47732     -200.90391      516.54075    
     23200   304.20607     -9935.9523     -8123.298      -416.40129     -8312.7491      31.480118      31.480118      31.480118     -404.22692     -936.86594      91.888997    
     23300   297.79321     -9930.1257     -8155.6834      56.276838     -8130.1463      31.452526      31.452526      31.452526     -318.37346      192.18087      295.0231     
     23400   301.60075     -9989.2487     -8192.1186     -339.16822     -8345.8545      31.440885      31.440885      31.440885      232.98029     -537.37458     -713.11037    
     23500   294.4062      -9994.33       -8240.0696     -161.9777      -8313.3659      31.42319       31.42319       31.42319      -593.30464     -412.11728      519.48881    
     23600   302.79166     -10019.227     -8215.0007      173.55498     -8136.6573      31.397604      31.397604      31.397604      436.5076       38.640181      45.517157    
     23700   302.57805     -9951.1526     -8148.1992      423.36861     -7957.1874      31.39221       31.39221       31.39221       474.56201     -242.83069      1038.3745    
     23800   294.31258     -9866.9924     -8113.2899      79.561631     -8077.375       31.397759      31.397759      31.397759      254.63407      265.31811     -281.26729    
     23900   299.60755     -9885.5911     -8100.3378      15.343784     -8093.4142      31.393556      31.393556      31.393556     -281.05975     -79.057104      406.1482     
     24000   308.75467     -9882.3843     -8042.6266      635.39395     -7755.913       31.393747      31.393747      31.393747      668.78841      831.25137      406.14208    
     24100   306.56596     -9828.2519     -8001.5359      1075.2425     -7514.729       31.428583      31.428583      31.428583      714.10902      712.91377      1798.7049    
     24200   299.74741     -9866.9492     -8080.8625     -26.026655     -8092.7576      31.527581      31.527581      31.527581     -13.986359      330.06564     -394.15924    
     24300   290.60798     -9821.7788     -8090.1507     -314.5673      -8235.3659      31.633036      31.633036      31.633036     -47.131672     -123.87616     -772.69406    
     24400   297.34185     -9814.5197     -8042.7669     -722.06671     -8378.4592      31.707551      31.707551      31.707551     -1201.0191     -460.93906     -504.24199    
     24500   307.88242     -9823.3786     -7988.8183     -595.22486     -8266.1776      31.731838      31.731838      31.731838     -577.89286     -494.57603     -713.20568    
     24600   309.90432     -9802.4621     -7955.8541     -361.94965     -8124.4012      31.724815      31.724815      31.724815     -363.99743     -67.177263     -654.67426    
     24700   302.99073     -9762.1206     -7956.7081      489.23677     -7729.5201      31.695443      31.695443      31.695443      649.72594      957.77854     -139.79419    
     24800   293.39044     -9800.0398     -8051.832       242.26066     -7939.5816      31.672064      31.672064      31.672064      588.74905      396.40738     -258.37445    
     24900   291.21413     -9833.2882     -8098.0482      40.940498     -8079.1036      31.658174      31.658174      31.658174      209.90574     -21.027839     -66.05641     
     25000   301.25869     -9835.3668     -8040.275       13.324521     -8034.1147      31.648804      31.648804      31.648804      283.16821      170.6082      -413.80285    
     25100   300.12031     -9799.3366     -8011.0279      797.11989     -7642.7682      31.641099      31.641099      31.641099      1590.3906      846.60833     -45.639232    
     25200   303.13541     -9802.4716     -7996.1971     -174.32162     -8076.8448      31.655914      31.655914      31.655914      68.188996     -313.13859     -278.01526    
     25300   308.85977     -9842.4404     -8002.0564     -726.21772     -8338.6225      31.674459      31.674459      31.674459     -789.17478     -1036.4384     -353.03999    
     25400   293.28706     -9862.326      -8114.7341     -631.12749     -8406.8133      31.659388      31.659388      31.659388     -330.79338     -1362.7707     -199.81836    
     25500   297.85109     -9883.805      -8109.0177     -129.13554     -8168.501       31.609982      31.609982      31.609982     -144.08437     -226.78677     -16.535466    
     25600   293.92804     -9816.4026     -8064.9914     -56.485405     -8090.8769      31.555968      31.555968      31.555968     -709.57017      278.83839      261.27556    
     25700   299.55548     -9809.4461     -8024.5031      271.47129     -7900.6911      31.505587      31.505587      31.505587      1216.9183     -14.583771     -387.92066    
     25800   306.90145     -9839.9484     -8011.2333      497.48121     -7784.9659      31.476747      31.476747      31.476747      1575.5954     -123.28532      40.133576    
     25900   302.78806     -9868.2871     -8064.0822      671.82697     -7758.3682      31.481882      31.481882      31.481882      1076.2608      85.101502      854.1186     
     26000   309.37633     -9948.8181     -8105.3561      238.43794     -7996.4018      31.525675      31.525675      31.525675      730.7435      -559.76267      544.333      
     26100   297.89728     -9901.2903     -8126.2279     -60.078403     -8153.8649      31.596007      31.596007      31.596007     -5.8291012     -121.25759     -53.14852     
     26200   294.49946     -9889.6234     -8134.8073     -292.3941      -8270.0863      31.656432      31.656432      31.656432      151.32246     -865.54055     -162.96423    
     26300   304.23856     -9866.6587     -8053.8109     -488.0306      -8280.4033      31.693786      31.693786      31.693786     -188.15028     -1028.0111     -247.93045    
     26400   309.14616     -9844.0408     -8001.9504      284.25034     -7869.6803      31.717205      31.717205      31.717205      307.41219      190.57359      354.76524    
     26500   297.71962     -9826.83       -8052.8262      82.476585     -8014.3285      31.74991       31.74991       31.74991       10.109347      243.98684     -6.6664325    
     26600   293.17666     -9860.2389     -8113.3049     -275.45571     -8242.1904      31.775485      31.775485      31.775485     -24.131073     -516.26875     -285.96731    
     26700   290.85802     -9843.7738     -8110.6557     -214.03327     -8210.6877      31.763422      31.763422      31.763422     -1637.1618      694.94778      300.1142     
     26800   296.843       -9821.7504     -8052.97        149.85117     -7983.2025      31.722864      31.722864      31.722864      262.54498      255.07966     -68.071128    
     26900   306.96896     -9867.42       -8038.3026      342.22986     -7879.276       31.702393      31.702393      31.702393      202.75571      392.86424      431.06961    
     27000   300.12268     -9865.431      -8077.1082     -252.14948     -8194.312       31.705596      31.705596      31.705596     -403.06525     -759.75241      406.36923    
     27100   291.37522     -9853.8981     -8117.6983      220.3584      -8015.3821      31.694189      31.694189      31.694189      432.37785     -452.95685      681.65421    
     27200   300.39373     -9856.5474     -8066.6095     -89.181531     -8107.9528      31.67753       31.67753       31.67753       99.495136     -172.54877     -194.49096    
     27300   301.33031     -9784.0368     -7988.5182      360.35607     -7821.6079      31.668324      31.668324      31.668324      69.08181       872.09819      139.88821    
     27400   304.83731     -9842.803      -8026.3874      275.87445     -7898.5731      31.671163      31.671163      31.671163     -95.427785      335.60841      587.44273    
     27500   297.94636     -9852.3177     -8076.9628     -210.40005     -8174.6366      31.692176      31.692176      31.692176     -241.54213      33.748923     -423.40696    
     27600   305.16337     -9911.4341     -8093.0756     -933.94663     -8527.0076      31.701118      31.701118      31.701118     -1081.896      -429.25673     -1290.6872    
     27700   294.67601     -9872.5168     -8116.6487     -1020.4801     -8588.9003      31.659033      31.659033      31.659033     -973.52057     -709.7029      -1378.217     
     27800   298.10123     -9842.1213     -8065.8436      573.60876     -7802.7261      31.565986      31.565986      31.565986      1003.2316      715.7176       1.8770327    
     27900   303.05164     -9833.0857     -8027.3103      396.83875     -7846.2285      31.510957      31.510957      31.510957      37.605385      1244.2293     -91.31842     
     28000   299.36302     -9839.9687     -8056.1725      883.61458     -7652.905       31.512641      31.512641      31.512641      527.82668      1260.775       862.24201    
     28100   303.1805      -9890.933      -8084.3898     -182.86258     -8168.1895      31.555912      31.555912      31.555912      397.18365     -273.55019     -672.2212     
     28200   302.42933     -9933.0668     -8130.9995     -560.80329     -8388.5411      31.578168      31.578168      31.578168     -251.2447       138.58511     -1569.7503    
     28300   300.53382     -9942.4457     -8151.6731      20.886199     -8142.0806      31.579032      31.579032      31.579032      286.82367      35.161837     -259.32691    
     28400   294.69135     -9924.1025     -8168.1431     -116.03619     -8221.4062      31.573229      31.573229      31.573229     -66.367761     -430.31826      148.57747    
     28500   305.701       -9906.0426     -8084.4806     -54.588919     -8109.505       31.55935       31.55935       31.55935      -647.48151      896.94368     -413.22893    
     28600   315.57307     -9922.7032     -8042.3172     -234.05156     -8149.5877      31.557139      31.557139      31.557139      218.28351     -708.9306      -211.50758    
     28700   299.1258      -9862.3409     -8079.9581      201.25802     -7987.7797      31.550048      31.550048      31.550048      576.10451     -407.0452       434.71476    
     28800   298.7365      -9873.5915     -8093.5285      248.46809     -7979.8474      31.538948      31.538948      31.538948     -155.13622      271.08389      629.45661    
     28900   307.09123     -9919.9084     -8090.0626     -521.22713     -8328.3836      31.53212       31.53212       31.53212      -371.71215     -272.84776     -919.12148    
     29000   294.08785     -9900.937      -8148.5736     -420.84139     -8340.7446      31.51842       31.51842       31.51842      -218.23136     -460.54546     -583.74734    
     29100   291.68321     -9929.3947     -8191.3597      12.368217     -8185.7376      31.470636      31.470636      31.470636     -37.363836      641.54524     -567.07676    
     29200   301.0625      -9926.3036     -8132.3808      623.39794     -7850.1936      31.426692      31.426692      31.426692     -229.25279      413.29059      1686.156     
     29300   301.92171     -9913.3875     -8114.3449      440.21282     -7915.2344      31.418485      31.418485      31.418485      248.86729      978.98109      92.790091    
     29400   302.33015     -9895.7465     -8094.2702     -108.63719     -8143.5239      31.443303      31.443303      31.443303     -822.57691      413.81524      82.850113    
     29500   302.48914     -9890.8591     -8088.4354     -348.73398     -8247.1715      31.484865      31.484865      31.484865     -710.878       -291.22976     -44.094189    
     29600   301.18611     -9859.5427     -8064.8833     -657.33416     -8364.6787      31.505588      31.505588      31.505588     -764.3404      -726.38117     -481.28091    
     29700   304.32393     -9873.614      -8060.2575     -333.59106     -8212.0852      31.483781      31.483781      31.483781     -278.23677      82.552448     -805.08885    
     29800   299.04952     -9906.5933     -8124.6651      397.20759     -7944.4927      31.448377      31.448377      31.448377      266.78268      86.862795      837.97729    
     29900   301.58759     -10003.473     -8206.4212     -234.95505     -8312.8371      31.432725      31.432725      31.432725     -322.11203     -807.85968      425.10654    
     30000   290.55241     -9962.9805     -8231.6835      159.95651     -8159.2769      31.426789      31.426789      31.426789     -738.34272      457.08269      761.12954    
     30100   292.73521     -9932.6704     -8188.3669     -436.42049     -8385.7573      31.418228      31.418228      31.418228     -1076.2851     -752.76972      519.79337    
     30200   296.63689     -9887.1604     -8119.6082     -155.29597     -8189.6424      31.387603      31.387603      31.387603     -392.54914     -301.53822      228.19944    
     30300   303.51634     -9896.0592     -8087.5148      401.46842     -7906.9316      31.360525      31.360525      31.360525      216.32624      116.44214      871.63688    
     30400   300.1578      -9925.4472     -8136.9152      391.48497     -7960.7468      31.365028      31.365028      31.365028      134.89541      453.89078      585.66872    
     30500   292.85038     -9930.646      -8185.6562     -289.09822     -8316.1662      31.398404      31.398404      31.398404      0.087912754   -538.8652      -328.51738    
     30600   300.20217     -9961.3918     -8172.5954     -10.085311     -8177.1519      31.406816      31.406816      31.406816      722.79537     -750.52972     -2.5215761    
     30700   301.15476     -9932.1697     -8137.6971      257.71488     -8021.1441      31.417339      31.417339      31.417339     -254.36029      795.24832      232.2566     
     30800   304.12395     -9882.014      -8069.8491     -184.00313     -8153.3538      31.453567      31.453567      31.453567     -413.713       -18.300136     -119.99625    
     30900   302.63662     -9835.5102     -8032.2078      212.12406     -7935.5872      31.492079      31.492079      31.492079      145.625        190.22799      300.5192     
     31000   300.64385     -9793.2796     -8001.8514      231.4082      -7896.0437      31.532198      31.532198      31.532198     -315.69759      409.1895       600.7327     
     31100   304.1611      -9792.9349     -7980.5486      97.652623     -7935.6886      31.581522      31.581522      31.581522      842.38289     -824.51702      275.092      
     31200   300.5602      -9809.5085     -8018.5787     -468.36672     -8234.6715      31.627111      31.627111      31.627111     -738.19021     -712.40473      45.494775    
     31300   301.6899      -9828.7097     -8031.0484     -533.83718     -8277.8536      31.64875       31.64875       31.64875      -1037.0913      98.556456     -662.97667    
     31400   297.92701     -9850.3267     -8075.0871      51.259652     -8051.395       31.645877      31.645877      31.645877     -396.21221      289.76819      260.22298    
     31500   286.59641     -9855.9613     -8148.2367      204.87672     -8053.6703      31.631719      31.631719      31.631719     -239.56201      303.30115      550.89104    
     31600   304.75348     -9920.2769     -8104.3609     -235.9262      -8212.9405      31.60085       31.60085       31.60085      -640.36191     -557.77452      490.35783    
     31700   296.01155     -9820.9302     -8057.1041      896.42525     -7646.4168      31.552985      31.552985      31.552985      1257.2263      1015.1817      416.86778    
     31800   303.7152      -9825.0254     -8015.2961      348.95328     -7855.5728      31.54339       31.54339       31.54339       627.40425      203.61403      215.84157    
     31900   303.94411     -9746.1529     -7935.0596     -237.20347     -8043.6706      31.547062      31.547062      31.547062      641.11209     -541.04117     -811.68132    
     32000   305.73272     -9772.9391     -7951.1881      116.23763     -7898.0422      31.531812      31.531812      31.531812      493.34081      668.34673     -812.97466    
     32100   296.15117     -9788.7792     -8024.1212      869.68223     -7626.612       31.528518      31.528518      31.528518      819.368        938.03687      851.64183    
     32200   300.31714     -9861.9559     -8072.4744      290.77707     -7939.1778      31.559325      31.559325      31.559325      347.67094      388.87944      135.78085    
     32300   299.35749     -9885.1643     -8101.401      -235.76644     -8209.8357      31.593923      31.593923      31.593923     -454.49678     -311.87437      59.071837    
     32400   307.2078      -9899.4572     -8068.9167     -236.11465     -8177.6077      31.603232      31.603232      31.603232      150.22604     -523.46263     -335.10736    
     32500   303.74977     -9875.3559     -8065.4206     -204.38734     -8159.3447      31.585113      31.585113      31.585113     -332.6216      -788.41583      507.87542    
     32600   297.1785      -9902.2191     -8131.4396     -407.74669     -8317.9879      31.538541      31.538541      31.538541     -492.55545     -640.13992     -90.544716    
     32700   301.90508     -9976.2687     -8177.3253     -373.42504     -8347.1288      31.474283      31.474283      31.474283      698.64055     -1216.908      -602.00769    
     32800   292.50665     -9933.0594     -8190.1178      468.86273     -7978.3368      31.404254      31.404254      31.404254      992.20088      2.8512376      411.53606    
     32900   302.80416     -9898.2779     -8093.9772      672.30092     -7791.2119      31.372959      31.372959      31.372959      880.55606      235.46661      900.88011    
     33000   305.51837     -9906.8688     -8086.395       739.8511      -7752.7267      31.388094      31.388094      31.388094      1403.2934      1203.7479     -387.48804    
     33100   286.15604     -9860.2768     -8155.1761      435.36983     -7957.9289      31.435876      31.435876      31.435876      317.28337      732.55241      256.27372    
     33200   298.33852     -9928.6122     -8150.9206     -462.79984     -8361.8849      31.500197      31.500197      31.500197     -502.46269     -369.76185     -516.17499    
     33300   294.82536     -9857.4463     -8100.6883     -196.55718     -8190.7207      31.550869      31.550869      31.550869     -145.86555     -342.52576     -101.28023    
     33400   303.32094     -9825.5567     -8018.1766     -44.506704     -8038.635       31.588056      31.588056      31.588056     -142.4626       163.75985     -154.81737    
     33500   295.68703     -9774.2976     -8012.4053      133.3526      -7950.9403      31.616719      31.616719      31.616719      604.1634       119.99414     -324.09973    
     33600   309.43046     -9858.0851     -8014.3006      309.26582     -7871.3752      31.644667      31.644667      31.644667      1174.1225      46.236961     -292.56203    
     33700   291.91366     -9820.0142     -8080.6061     -787.49371     -8445.5112      31.672743      31.672743      31.672743     -197.29283     -1683.1959     -481.99236    
     33800   295.6823      -9855.3733     -8093.5092      142.26074     -8027.735       31.649349      31.649349      31.649349      961.15312     -212.79994     -321.57095    
     33900   297.82513     -9852.8774     -8078.2448      534.42427     -7831.9271      31.616312      31.616312      31.616312     -141.01806      936.31827      807.97261    
     34000   298.48885     -9884.9951     -8106.4077      17.412903     -8098.399       31.594019      31.594019      31.594019      494.76437      32.564517     -475.09018    
     34100   294.36381     -9955.7207     -8201.7129      76.087338     -8166.8026      31.568596      31.568596      31.568596     -23.698487      334.46089     -82.500393    
     34200   300.28249     -9978.9296     -8189.6546      292.31073     -8055.7343      31.553092      31.553092      31.553092      628.57256     -796.73984      1045.0995    
     34300   302.31455     -9956.1297     -8154.7464      250.19427     -8040.049       31.559739      31.559739      31.559739      77.879475      183.0501       489.65324    
     34400   299.31653     -9914.9676     -8131.4483      26.591694     -8119.2262      31.587021      31.587021      31.587021      3.3766056     -403.23206      479.63054    
     34500   297.24209     -9856.1293     -8084.9709     -487.23153     -8309.4633      31.612834      31.612834      31.612834     -326.27169     -1085.5582     -49.864667    
     34600   300.54668     -9860.1449     -8069.2957      18.892249     -8060.5938      31.609519      31.609519      31.609519      25.892677     -630.95813      661.7422     
     34700   301.43934     -9866.0545     -8069.8863     -299.77525     -8207.8623      31.601714      31.601714      31.601714     -229.98374     -756.16337      86.821361    
     34800   301.08854     -9893.8839     -8099.8059      58.684808     -8072.8478      31.581225      31.581225      31.581225     -111.81801     -240.63382      528.50626    
     34900   297.48307     -9893.7658     -8121.1715     -6.595709      -8124.1958      31.561742      31.561742      31.561742     -280.19463     -94.288134      354.69563    
     35000   297.0037      -9941.2102     -8171.4723      96.16868      -8127.417       31.552186      31.552186      31.552186     -122.01735     -166.68634      577.20973    
     35100   292.82204     -9944.348      -8199.527       363.81748     -8032.9046      31.549414      31.549414      31.549414     -515.02385      560.03228      1046.444     
     35200   297.231       -9899.8035     -8128.7111      142.63965     -8063.287       31.565104      31.565104      31.565104     -157.3013       62.693402      522.52686    
     35300   307.32021     -9903.756      -8072.5458     -88.936504     -8113.4405      31.591516      31.591516      31.591516     -325.79448      404.06197     -345.07699    
     35400   301.5335      -9885.0168     -8088.2874      374.28629     -7915.6097      31.626572      31.626572      31.626572     -226.2711       729.64506      619.48492    
     35500   300.96908     -9890.6824     -8097.3162     -29.82562      -8111.1489      31.68211       31.68211       31.68211       114.00368      426.51747     -629.99801    
     35600   289.9873      -9861.8038     -8133.8741     -1144.81       -8667.0862      31.727091      31.727091      31.727091     -1025.9795     -1238.5995     -1169.8509    
     35700   301.71931     -9900.1992     -8102.3627     -200.57771     -8195.5896      31.704992      31.704992      31.704992     -261.08472      94.265747     -434.91417    
     35800   301.37328     -9833.9851     -8038.2104     -123.28032     -8095.3218      31.670214      31.670214      31.670214      32.453573     -163.78578     -238.50876    
     35900   301.36305     -9843.3902     -8047.6765      64.367536     -8017.9566      31.635021      31.635021      31.635021     -349.62905      335.32744      207.40422    
     36000   295.87704     -9867.9141     -8104.8896     -8.7644245     -8108.9272      31.611242      31.611242      31.611242     -859.52143      504.77249      328.45567    
     36100   290.99451     -9868.8864     -8134.9551      189.61322     -8047.8008      31.587468      31.587468      31.587468      541.98252      3.6817567      23.175384    
     36200   299.6971      -9847.4848     -8061.6979      675.93298     -7750.9399      31.589852      31.589852      31.589852      141.26599      1305.5114      581.02156    
     36300   307.77232     -9849.5772     -8015.6729      137.52107     -7952.1601      31.637744      31.637744      31.637744      23.952916     -96.574799      485.1851     
     36400   301.55719     -9835.4169     -8038.5464     -224.63975     -8142.887       31.697887      31.697887      31.697887     -1238.6442     -665.38773      1230.1126    
     36500   294.23957     -9801.9936     -8048.7261     -258.65753     -8169.205       31.727559      31.727559      31.727559      30.304583     -773.09025     -33.186904    
     36600   305.81822     -9808.9701     -7986.7096     -354.7137      -8151.8309      31.721209      31.721209      31.721209     -173.66858     -756.69063     -133.7819     
     36700   301.20249     -9769.3563     -7974.5993     -381.70149     -8151.7721      31.690743      31.690743      31.690743     -277.27238     -400.88496     -466.94713    
     36800   305.9569      -9807.2694     -7984.1826      285.6902      -7852.2935      31.633406      31.633406      31.633406      705.54455     -15.232923      166.75898    
     36900   304.65427     -9824.5982     -8009.2733      642.446       -7714.0019      31.586604      31.586604      31.586604      1101.992       442.37587      382.97015    
     37000   301.63598     -9851.0185     -8053.6785     -2.0410068     -8054.6167      31.588428      31.588428      31.588428     -290.05679      173.53723      110.39654    
     37100   301.17601     -9855.8368     -8061.2376     -371.3797      -8232.3084      31.610203      31.610203      31.610203     -428.76634     -589.13806     -96.23472     
     37200   301.66295     -9859.5107     -8062.01       -402.32993     -8247.5192      31.620529      31.620529      31.620529      37.584727     -442.61249     -801.96202    
     37300   303.20307     -9864.6114     -8057.9337     -141.79727     -8123.2488      31.609911      31.609911      31.609911      378.23824     -593.18047     -210.44957    
     37400   300.16718     -9871.8002     -8083.2122     -133.96518     -8144.7947      31.588555      31.588555      31.588555      595.11016     -869.29651     -127.70919    
     37500   298.77001     -9901.8984     -8121.6357     -377.54954     -8294.7023      31.558847      31.558847      31.558847     -500.79489     -770.92085      139.06713    
     37600   293.56324     -9899.0246     -8149.7871      848.09273     -7762.7693      31.511609      31.511609      31.511609      938.21679      1098.0798      507.98162    
     37700   297.80231     -9974.875      -8200.3784     -80.208829     -8236.9141      31.492455      31.492455      31.492455     -542.51064     -292.90932      594.79347    
     37800   285.91457     -9953.0505     -8249.3887     -22.64985      -8259.6814      31.467571      31.467571      31.467571     -440.18846      595.50293     -223.26403    
     37900   297.297       -9971.934      -8200.4484      275.51132     -8075.5882      31.439055      31.439055      31.439055      538.00848      70.313708      218.21178    
     38000   297.24779     -9952.6422     -8181.4499      533.88185     -7939.6141      31.434012      31.434012      31.434012      538.94077      1217.2012     -154.49638    
     38100   299.67224     -9931.9182     -8146.2794      314.27739     -8003.3328      31.47712       31.47712       31.47712       630.24713     -273.43951      586.02454    
     38200   300.62449     -9870.9677     -8079.6548     -276.011       -8206.1194      31.55408       31.55408       31.55408      -1200.9758      424.01944     -51.076633    
     38300   299.33881     -9816.0979     -8032.4459     -794.90567     -8398.4063      31.604398      31.604398      31.604398     -593.57034     -488.24299     -1302.9037    
     38400   309.961       -9811.7196     -7964.7738     -498.4237      -8194.0259      31.594601      31.594601      31.594601     -330.56836     -385.4734      -779.22935    
     38500   309.47264     -9819.3358     -7975.2999     -0.54293861    -7975.549       31.56733       31.56733       31.56733      -268.45884      150.49862      116.3314     
     38600   299.01067     -9847.4032     -8065.7065      47.256986     -8044.0491      31.556489      31.556489      31.556489      135.3137       438.76722     -432.30996    
     38700   298.86255     -9876.9217     -8096.1075      714.66002     -7768.3525      31.56395       31.56395       31.56395       560.57539      564.44872      1018.956     
     38800   298.93884     -9877.0584     -8095.7897      240.4512      -7985.1022      31.603262      31.603262      31.603262      97.093822      330.88459      293.37519    
     38900   301.13554     -9878.7266     -8084.3685     -123.88418     -8141.6573      31.651391      31.651391      31.651391      330.02352     -310.79122     -390.88483    
     39000   300.31901     -9844.7011     -8055.2085     -164.99753     -8131.7944      31.690698      31.690698      31.690698     -536.80204      87.297151     -45.487718    
     39100   297.71281     -9800.485      -8026.5217     -552.9347      -8283.5078      31.704429      31.704429      31.704429     -955.04658     -771.13279      67.375273    
     39200   306.70325     -9829.0709     -8001.5369     -783.68609     -8364.7012      31.673427      31.673427      31.673427     -293.97043     -1530.5862     -526.50162    
     39300   298.24555     -9774.5643     -7997.4266      160.59285     -7923.5326      31.598693      31.598693      31.598693     -656.19368      24.769389      1113.2028    
     39400   299.36216     -9852.1603     -8068.3692      442.14067     -7866.0958      31.537997      31.537997      31.537997      786.91201      874.63262     -335.12262    
     39500   297.46499     -9905.353      -8132.8665      291.19303     -7999.955       31.513877      31.513877      31.513877     -141.54222      1072.7408     -57.619555    
     39600   305.61089     -9967.3222     -8146.2972      68.924344     -8114.8462      31.51099       31.51099       31.51099       237.33603     -642.85155      612.28856    
     39700   296.11054     -9894.0085     -8129.5926      186.4223      -8044.4399      31.521598      31.521598      31.521598      656.65934      23.36176      -120.75421    
     39800   298.50731     -9855.2807     -8076.5833     -484.16966     -8298.0713      31.53738       31.53738       31.53738      -468.75488     -610.86947     -372.88464    
     39900   302.86242     -9876.8191     -8072.1712      172.25521     -7993.4402      31.528191      31.528191      31.528191      418.90512      57.691237      40.169283    
     40000   294.15165     -9836.9924     -8084.2489     -96.573448     -8128.3405      31.516707      31.516707      31.516707      185.64112     -404.38056     -70.980904    
     40100   299.85427     -9846.6004     -8059.877      -203.50264     -8152.7133      31.508221      31.508221      31.508221     -493.63749      37.712184     -154.58262    
     40200   298.76404     -9823.4669     -8043.2398      432.42337     -7846.081       31.502405      31.502405      31.502405      465.11173      34.526306      797.63207    
     40300   309.90433     -9854.2438     -8007.6357     -45.979219     -8028.617       31.511205      31.511205      31.511205      336.44991     -642.29678      167.90922    
     40400   294.12794     -9847.3282     -8094.726      -5.6139713     -8097.2874      31.509885      31.509885      31.509885     -403.68463      316.81451      70.028205    
     40500   290.61658     -9862.7178     -8131.0384     -433.2813      -8328.1035      31.47661       31.47661       31.47661      -761.90207      159.20342     -697.14525    
     40600   303.19684     -9909.8672     -8103.2266      369.92005     -7935.9815      31.413997      31.413997      31.413997     -140.21999      885.20233      364.77781    
     40700   300.63707     -9873.592      -8082.2042      231.7575      -7977.8186      31.374508      31.374508      31.374508      105.26261     -342.716        932.72591    
     40800   304.53599     -9919.8282     -8105.2081      23.952461     -8094.4358      31.358885      31.358885      31.358885     -139.96981     -228.48001      440.30721    
     40900   291.3743      -9923.7074     -8187.513      -98.475485     -8231.8456      31.369415      31.369415      31.369415     -420.41207     -546.68296      671.66858    
     41000   304.60096     -9987.8793     -8172.872      -405.85078     -8355.6433      31.372939      31.372939      31.372939     -670.69979      26.523918     -573.37648    
     41100   302.12802     -9933.0273     -8132.7555      556.49895     -7882.0885      31.375135      31.375135      31.375135      438.32197      398.15048      833.02439    
     41200   299.40531     -9871.0843     -8087.0361      72.978048     -8054.0565      31.409353      31.409353      31.409353      157.74162      302.69522     -241.50269    
     41300   300.36808     -9876.8479     -8087.0628      266.86032     -7966.0025      31.449514      31.449514      31.449514      392.10806     -14.79697       423.26985    
     41400   292.04086     -9842.1463     -8101.9801     -302.54589     -8239.7735      31.491047      31.491047      31.491047     -416.16952     -168.02055     -323.44759    
     41500   295.62648     -9842.861      -8081.3294      45.704993     -8060.4596      31.518072      31.518072      31.518072     -18.832327      410.05584     -254.10854    
     41600   302.70619     -9878.1401     -8074.4231      212.83552     -7977.0881      31.534285      31.534285      31.534285      741.12189      15.124024     -117.73937    
     41700   294.72512     -9817.5035     -8061.3428     -485.05486     -8283.7322      31.560883      31.560883      31.560883     -868.4838      -481.50213     -105.17864    
     41800   303.84997     -9861.2933     -8050.761      -200.00704     -8142.5431      31.570322      31.570322      31.570322     -380.12009      162.34386     -382.2449     
     41900   302.18081     -9874.4581     -8073.8716      237.60406     -7964.8795      31.566169      31.566169      31.566169      85.806415      482.20558      144.80017    
     42000   296.54507     -9876.475      -8109.4699     -198.71753     -8200.458       31.546964      31.546964      31.546964     -235.96978     -23.016516     -337.16631    
     42100   294.72916     -9906.7541     -8150.5693     -10.248778     -8155.2458      31.510643      31.510643      31.510643      89.727492     -351.26822      230.79439    
     42200   307.3605      -9926.0618     -8094.6115      172.60675     -8016.0076      31.489805      31.489805      31.489805      284.47172     -215.32174      448.67027    
     42300   302.96449     -9858.8639     -8053.6078     -45.668713     -8074.403       31.488804      31.488804      31.488804     -140.69325      676.34498     -672.65787    
     42400   302.55914     -9866.6558     -8063.8151     -66.083119     -8093.8854      31.481626      31.481626      31.481626      394.84281      94.877407     -687.96958    
     42500   303.82863     -9896.3313     -8085.9261      554.79878     -7833.7389      31.470516      31.470516      31.470516      761.38787      618.93021      284.07824    
     42600   299.71525     -9893.5683     -8107.6732      222.38818     -8006.3031      31.499777      31.499777      31.499777      881.99524      98.605126     -313.43583    
     42700   295.24512     -9907.1091     -8147.8499     -258.10209     -8265.9629      31.541095      31.541095      31.541095      11.449014     -279.44446     -506.31081    
     42800   289.73726     -9950.8877     -8224.4479     -653.31839     -8523.7606      31.553057      31.553057      31.553057     -922.74686     -552.00951     -485.19879    
     42900   299.95315     -9985.6535     -8198.3408     -325.94973     -8347.1416      31.515645      31.515645      31.515645     -382.52432     -289.70697     -305.61791    
     43000   295.28801     -9936.0697     -8176.5549     -259.96668     -8294.5801      31.457706      31.457706      31.457706     -232.91931     -164.86206     -382.11866    
     43100   305.83883     -9949.7406     -8127.3574      241.88421     -8018.1094      31.403397      31.403397      31.403397      1450.5875      275.46153     -1000.3964    
     43200   297.78808     -9856.0388     -8081.6271     -159.82709     -8153.5549      31.365833      31.365833      31.365833     -149.43035     -632.65741      302.60648    
     43300   295.65309     -9799.9983     -8038.3082      597.36878     -7770.0316      31.344027      31.344027      31.344027      791.95661     -416.57314      1416.7229    
     43400   300.60814     -9820.7697     -8029.5542      541.64482     -7786.1954      31.348654      31.348654      31.348654      808.23803      205.07387      611.62256    
     43500   301.20471     -9847.7995     -8053.0294     -43.416722     -8072.5889      31.376807      31.376807      31.376807     -283.21658      337.48861     -184.5222     
     43600   302.47968     -9897.1843     -8094.817      -493.28252     -8317.6809      31.406729      31.406729      31.406729     -210.14641     -604.07512     -665.62603    
     43700   295.17        -9848.4989     -8089.6874      293.90504     -7956.6755      31.424561      31.424561      31.424561      751.34057     -150.16713      280.54168    
     43800   301.67904     -9862.4673     -8064.8707     -605.76459     -8339.6397      31.448215      31.448215      31.448215     -496.86378     -660.82815     -659.60183    
     43900   306.38695     -9860.644      -8034.9946     -549.02622     -8283.9363      31.444366      31.444366      31.444366     -37.408277     -865.371       -744.29939    
     44000   305.96939     -9812.412      -7989.2508      1056.8812     -7510.9475      31.424408      31.424408      31.424408      1549.3136      475.64248      1145.6875    
     44100   296.74031     -9800.7309     -8032.5625      312.64573     -7890.6633      31.454574      31.454574      31.454574      900.74901      61.94537      -24.757205    
[...]
     91200   305.56908     -9881.9915     -8061.2156     -583.04514     -8326.6774      31.487727      31.487727      31.487727     -162.65979     -523.56441     -1062.9112    
     91300   299.65737     -9822.1651     -8036.615      -33.029146     -8051.6384      31.477345      31.477345      31.477345     -1001.8466      504.38924      398.36991    
     91400   304.14184     -9838.0479     -8025.7763      154.35368     -7955.6641      31.463019      31.463019      31.463019     -62.945605      356.09343      169.91321    
     91500   299.48214     -9896.962      -8112.4559     -453.99603     -8318.4401      31.451059      31.451059      31.451059     -473.46929      53.663271     -942.18205    
     91600   298.24959     -9942.6927     -8165.5309     -196.05413     -8254.3303      31.433007      31.433007      31.433007     -793.74089      432.82949     -227.25099    
     91700   295.41346     -9918.3171     -8158.0549      568.13289     -7901.0781      31.418782      31.418782      31.418782      557.65992      1177.4406     -30.701866    
     91800   299.16342     -9922.8578     -8140.2509     -58.668553     -8166.7971      31.42249       31.42249       31.42249      -221.9148      -14.230751      60.139894    
     91900   315.65681     -9935.721      -8054.8359      517.94833     -7820.0431      31.441807      31.441807      31.441807      268.5311       458.08192      827.23199    
     92000   308.09721     -9886.1015     -8050.2614     -455.16304     -8257.5915      31.49245       31.49245       31.49245      -245.63642     -913.59366     -206.25906    
     92100   291.90883     -9826.5194     -8087.14       -84.167691     -8125.5872      31.522069      31.522069      31.522069      300.00443      298.37699     -850.8845     
     92200   300.6456      -9872.7239     -8081.2852      144.40359     -8015.2129      31.539526      31.539526      31.539526     -39.581228      206.26968      266.52231    
     92300   307.39895     -9900.678      -8068.9986     -228.79094     -8174.0454      31.575923      31.575923      31.575923     -252.98138     -66.339888     -367.05156    
     92400   301.37984     -9872.2671     -8076.4533     -627.2444      -8365.2627      31.605756      31.605756      31.605756     -459.5675      -819.0253      -603.1404     
     92500   305.49484     -9868.0265     -8047.6929      221.8837      -7945.5944      31.598956      31.598956      31.598956      305.49573      611.47096     -251.3156     
     92600   314.2387      -9834.7196     -7962.2846     -449.82447     -8169.1549      31.593163      31.593163      31.593163     -24.868027     -857.22078     -467.38462    
     92700   301.91609     -9800.0707     -8001.0616      10.639294     -7996.1773      31.574518      31.574518      31.574518     -311.41538     -66.799393      410.13266    
     92800   302.23581     -9858.78       -8057.8658      40.685063     -8039.231       31.550407      31.550407      31.550407      493.98995     -589.56822      217.63346    
     92900   294.46249     -9861.7044     -8107.1087     -396.403       -8288.2106      31.523669      31.523669      31.523669     -608.07488     -211.2913      -369.84283    
     93000   299.63968     -9901.67       -8116.2253      425.43699     -7922.7304      31.476478      31.476478      31.476478     -25.039597      617.69994      683.65062    
     93100   294.04384     -9833.235      -8081.1338     -113.34651     -8132.4705      31.432666      31.432666      31.432666     -100.75322     -437.45018      198.16386    
     93200   308.20235     -9858.9625     -8022.4959      641.79017     -7732.7643      31.398504      31.398504      31.398504     -234.41015      1505.1597      654.62094    
     93300   302.66266     -9858.3117     -8054.8541      437.39834     -7857.2159      31.407928      31.407928      31.407928     -112.97023      135.32873      1289.8365    
     93400   300.11511     -9890.4295     -8102.1518     -261.66808     -8220.8223      31.446473      31.446473      31.446473     -887.32792      146.55204     -44.228356    
     93500   299.54587     -9899.4304     -8114.5446     -624.20259     -8398.191       31.467237      31.467237      31.467237     -1114.5245     -278.71912     -479.36411    
     93600   296.87901     -9901.0582     -8132.0633      70.281965     -8100.1965      31.444142      31.444142      31.444142     -240.23702      827.1708      -376.08788    
     93700   299.04149     -9888.4139     -8106.5336     -178.41883     -8187.3115      31.428616      31.428616      31.428616     -553.69877      380.71835     -362.27606    
     93800   305.46348     -9841.5262     -8021.3795      426.4         -7828.3549      31.427263      31.427263      31.427263      769.90836      487.79064      21.501017    
     93900   306.19508     -9840.617      -8016.111       134.91725     -7954.7848      31.470294      31.470294      31.470294      324.15629      505.54068     -424.94522    
     94000   296.6498      -9829.4499     -8061.8207     -802.60005     -8428.1833      31.514614      31.514614      31.514614     -1505.8354     -795.32988     -106.63491    
     94100   296.26015     -9840.0742     -8074.7668     -640.72098     -8366.965       31.504863      31.504863      31.504863     -642.47532     -92.198068     -1187.4896    
     94200   299.425       -9807.0675     -8022.9019     -415.49678     -8211.3857      31.449238      31.449238      31.449238     -910.12278     -60.497965     -275.86959    
     94300   313.67567     -9814.5973     -7945.5172      899.25275     -7539.9778      31.387625      31.387625      31.387625      876.56029      968.40692      852.79105    
     94400   306.098       -9821.6038     -7997.6762      364.44114     -7833.3601      31.385253      31.385253      31.385253     -523.60702      1353.0559      263.87451    
     94500   303.76595     -9870.7118     -8060.6801      139.81505     -7997.5008      31.408576      31.408576      31.408576      280.65205     -169.62271      308.41579    
     94600   301.09651     -9896.2294     -8102.1039     -120.18895     -8156.542       31.433125      31.433125      31.433125      474.3248      -34.0877       -800.80395    
     94700   298.48408     -9904.532      -8125.9731     -186.96917     -8210.7763      31.447694      31.447694      31.447694     -1131.6833      253.11155      317.66421    
     94800   299.23438     -9922.7085     -8139.6787     -329.64537     -8289.3649      31.459583      31.459583      31.459583     -432.69915     -171.90324     -384.33372    
     94900   293.02832     -9865.7844     -8119.7343     -183.78894     -8203.3123      31.474982      31.474982      31.474982     -52.730481      48.839579     -547.47591    
     95000   303.15386     -9855.6156     -8049.2311     -758.3425      -8394.7697      31.495736      31.495736      31.495736     -719.72531     -1060.2976     -495.00457    
     95100   298.67868     -9847.9073     -8068.1888     -49.279977     -8090.6311      31.490043      31.490043      31.490043     -275.80726      83.047094      44.920235    
     95200   299.34262     -9887.1149     -8103.4402     -122.58255     -8159.2077      31.479334      31.479334      31.479334     -793.25494      330.85025      94.657041    
     95300   302.60966     -9934.9798     -8131.838      -261.67013     -8250.6481      31.458725      31.458725      31.458725     -27.212451     -471.30743     -286.49052    
     95400   291.00036     -9916.0011     -8182.035       368.7243      -8015.052       31.431479      31.431479      31.431479      148.88665      268.39459      688.89166    
     95500   297.19342     -9970.2382     -8199.3698      419.50662     -8009.6174      31.41889       31.41889       31.41889       96.913732      272.83594      888.7702     
     95600   297.45582     -9899.9446     -8127.5126      272.8847      -8003.8937      31.434747      31.434747      31.434747      281.09595      1168.572      -631.01388    
     95700   304.74044     -9888.7288     -8072.8905     -76.161107     -8107.5019      31.468072      31.468072      31.468072     -248.51253     -264.15192      284.18112    
     95800   295.97057     -9831.1686     -8067.5868     -816.68522     -8439.8972      31.501039      31.501039      31.501039     -592.29226     -477.41821     -1380.3452    
     95900   300.21358     -9859.6345     -8070.77       -604.65254     -8346.1256      31.489857      31.489857      31.489857     -547.89787     -867.45382     -398.60592    
     96000   309.44068     -9850.8561     -8007.0107      159.18873     -7934.7433      31.457068      31.457068      31.457068      267.00615     -193.86713      404.42717    
     96100   300.61933     -9806.0937     -8014.8116      61.112886     -7987.1133      31.439903      31.439903      31.439903      427.8597       354.39473     -598.91577    
     96200   294.91323     -9852.418      -8095.1365     -151.32746     -8163.6992      31.4363        31.4363        31.4363        16.644586      415.2927      -885.91965    
     96300   292.80368     -9898.3591     -8153.6477      15.751142     -8146.5147      31.431154      31.431154      31.431154      54.757093     -42.120022      34.616354    
     96400   299.29539     -9920.9297     -8137.5364      679.86457     -7829.8413      31.424913      31.424913      31.424913      330.01402      1569.9746      139.60503    
     96500   300.8167      -9872.7129     -8080.2547      135.65731     -8018.6158      31.466261      31.466261      31.466261     -302.68241      250.82694      458.8274     
     96600   297.97614     -9814.9241     -8039.3917     -664.95645     -8343.2743      31.526729      31.526729      31.526729     -426.68108     -950.9135      -617.27478    
     96700   300.90508     -9786.9191     -7993.9343     -383.05101     -8169.4508      31.554539      31.554539      31.554539     -334.53162      453.46209     -1268.0835    
     96800   305.51453     -9800.3572     -7979.9063      325.94426     -7830.4229      31.563944      31.563944      31.563944      23.620393      659.49802      294.71437    
     96900   292.59777     -9829.3094     -8085.8248     -1043.982      -8564.8757      31.569734      31.569734      31.569734     -1222.1444     -1077.7727     -832.02893    
     97000   297.85935     -9887.1679     -8112.3314     -771.26503     -8464.6911      31.523582      31.523582      31.523582     -1360.2582     -447.23923     -506.29768    
     97100   302.9821      -9872.0143     -8066.6532      260.33557     -7948.4405      31.459483      31.459483      31.459483     -536.30695      808.9088       508.40488    
     97200   303.69544     -9864.8219     -8055.2103      534.06589     -7813.0267      31.44546       31.44546       31.44546      -29.551996      1109.806       521.94365    
     97300   293.29634     -9858.0499     -8110.4028      329.10921     -7960.8061      31.470384      31.470384      31.470384      435.25948      746.18034     -194.11219    
     97400   297.31929     -9908.4352     -8136.8168     -8.2548499     -8140.5829      31.509222      31.509222      31.509222     -96.565846     -55.709705      127.511      
     97500   292.56788     -9907.3105     -8164.004       9.395448      -8159.7094      31.528996      31.528996      31.528996      801.21695     -300.90511     -472.1255     
     97600   292.28582     -9929.2616     -8187.6359      34.954259     -8171.6407      31.540678      31.540678      31.540678     -35.639895      337.23976     -196.73709    
     97700   295.39838     -9969.6486     -8209.4762     -154.6548      -8280.3157      31.550929      31.550929      31.550929     -146.06622      508.73724     -826.63542    
     97800   293.49642     -9894.5435     -8145.7042     -109.66176     -8196.0079      31.566259      31.566259      31.566259      2.1180979      64.369549     -395.47293    
     97900   301.76958     -9879.7696     -8081.6335     -135.97972     -8144.1032      31.582026      31.582026      31.582026     -71.71917      -292.45514     -43.764854    
     98000   297.08905     -9840.2374     -8069.9909      153.72692     -7999.3515      31.584484      31.584484      31.584484      747.92819      91.082701     -377.83014    
     98100   299.13778     -9844.274      -8061.8199     -637.5287      -8354.5676      31.577127      31.577127      31.577127     -12.112028     -965.53567     -934.93841    
     98200   297.49673     -9866.3545     -8093.6788     -610.18397     -8372.878       31.539816      31.539816      31.539816      188.67245     -895.01869     -1124.2057    
     98300   306.17299     -9882.0535     -8057.6791     -492.67203     -8281.988       31.487455      31.487455      31.487455     -137.65741     -739.93994     -600.41873    
     98400   298.30029     -9831.1006     -8053.6368      816.39113     -7683.8794      31.432643      31.432643      31.432643      885.67734      1016.8775      546.61858    
     98500   302.33674     -9858.1072     -8056.5917      74.272957     -8023.0298      31.408442      31.408442      31.408442      722.87625     -210.82892     -289.22846    
     98600   299.50656     -9892.6068     -8107.9552      670.3262      -7805.4293      31.395461      31.395461      31.395461      973.72378      725.50144      311.75339    
     98700   296.81166     -9938.3863     -8169.7927      554.28008     -7919.0542      31.419937      31.419937      31.419937      557.05798      1089.2642      16.518036    
     98800   293.67096     -9946.5719     -8196.6926     -284.73658     -8326.0428      31.464151      31.464151      31.464151      98.227187     -510.04515     -442.39178    
     98900   297.14568     -9914.663      -8144.0791     -44.002551     -8164.1132      31.487532      31.487532      31.487532     -365.37374      645.00211     -411.63602    
     99000   298.39588     -9888.4149     -8110.3815      24.221548     -8099.3311      31.508948      31.508948      31.508948     -559.23815      583.54466      48.358125    
     99100   303.00204     -9891.7206     -8086.2407     -185.37007     -8170.9524      31.526512      31.526512      31.526512     -386.81456     -454.13841      284.84278    
     99200   297.01703     -9857.988      -8088.1707     -184.02789     -8172.25        31.524133      31.524133      31.524133     -520.58314      58.340796     -89.841336    
     99300   302.12056     -9883.5119     -8083.2845     -72.043422     -8116.159       31.511063      31.511063      31.511063     -620.28799      177.30656      226.85116    
     99400   306.06306     -9893.3424     -8069.623       338.49411     -7915.3039      31.501473      31.501473      31.501473      670.50364      272.04108      72.937603    
     99500   311.89587     -9865.0266     -8006.5516      511.89491     -7772.6381      31.525808      31.525808      31.525808      239.26524      493.87397      802.54553    
     99600   300.10928     -9809.9013     -8021.6583      418.70447     -7829.2445      31.585248      31.585248      31.585248     -249.1119       583.87014      921.35518    
     99700   291.82287     -9799.1202     -8060.253      -837.84507     -8447.5424      31.646961      31.646961      31.646961     -1159.694      -1192.0298     -161.81141    
     99800   295.53425     -9803.6251     -8042.6431     -174.47629     -8123.3402      31.653027      31.653027      31.653027     -96.784232     -0.067343858   -426.57729    
     99900   299.56679     -9796.352      -8011.3416      872.97102     -7608.4357      31.630736      31.630736      31.630736      578.23247      1451.0794      589.60121    
    100000   310.66432     -9812.7889     -7961.6522      334.84608     -7807.0694      31.633463      31.633463      31.633463      863.52838     -511.34192      652.35177    
    100100   308.46732     -9817.1144     -7979.0689     -645.01474     -8277.185       31.645599      31.645599      31.645599     -89.692668     -1089.861      -755.49058    
    100200   296.19382     -9823.8411     -8058.929       26.42807      -8046.7348      31.627947      31.627947      31.627947      108.5089      -327.71116      298.48646    
    100300   304.03559     -9872.4314     -8060.793      -881.55588     -8466.7677      31.607567      31.607567      31.607567     -413.8851      -1069.3159     -1161.4667    
    100400   298.18917     -9836.497      -8059.6953      256.64983     -7942.056       31.558166      31.558166      31.558166      85.355723     -142.39623      826.99       
    100500   310.18717     -9846.907      -7998.6136      680.05045     -7687.8057      31.527657      31.527657      31.527657      510.03433      605.99619      924.12083    
    100600   303.14641     -9840.5061     -8034.166       344.97271     -7876.4148      31.53339       31.53339       31.53339       194.36669     -18.595248      859.14669    
    100700   301.35189     -9893.779      -8098.1318     -745.03885     -8439.3088      31.548229      31.548229      31.548229     -488.50521     -850.88293     -895.72841    
    100800   291.23755     -9867.6395     -8132.26        185.75857     -8047.4186      31.520596      31.520596      31.520596      43.019453      464.12729      50.128982    
    100900   299.29836     -9912.3274     -8128.9164     -107.39755     -8177.8355      31.492184      31.492184      31.492184     -273.44664      255.70609     -304.45211    
    101000   308.02996     -9929.1344     -8093.695       427.007       -7899.4413      31.478894      31.478894      31.478894      431.66203      859.92151     -10.562541    
Loop time of 4310.76 on 1 procs for 100000 steps with 3000 atoms

Performance: 2.004 ns/day, 11.974 hours/ns, 23.198 timesteps/s
96.7% CPU use with 1 MPI tasks x 1 OpenMP threads

MPI task timing breakdown:
Section |  min time  |  avg time  |  max time  |%varavg| %total
---------------------------------------------------------------
Pair    | 2506.4     | 2506.4     | 2506.4     |   0.0 | 58.14
Bond    | 0.20993    | 0.20993    | 0.20993    |   0.0 |  0.00
Kspace  | 573.6      | 573.6      | 573.6      |   0.0 | 13.31
Neigh   | 54.98      | 54.98      | 54.98      |   0.0 |  1.28
Comm    | 12.618     | 12.618     | 12.618     |   0.0 |  0.29
Output  | 0.83231    | 0.83231    | 0.83231    |   0.0 |  0.02
Modify  | 1156.2     | 1156.2     | 1156.2     |   0.0 | 26.82
Other   |            | 5.883      |            |       |  0.14

Nlocal:           3000 ave        3000 max        3000 min
Histogram: 1 0 0 0 0 0 0 0 0 0
Nghost:          13496 ave       13496 max       13496 min
Histogram: 1 0 0 0 0 0 0 0 0 0
Neighs:    1.04373e+06 ave 1.04373e+06 max 1.04373e+06 min
Histogram: 1 0 0 0 0 0 0 0 0 0

Total # of neighbors = 1043731
Ave neighs/atom = 347.91033
Ave special neighs/atom = 2
Neighbor list builds = 1564
Dangerous builds = 0

write_data  water2.data
System init for write_data ...
PPPM initialization ...
  using 12-bit tables for long-range coulomb (src/kspace.cpp:342)
  G vector (1/distance) = 0.30397936
  grid = 27 27 27
  stencil order = 5
  estimated absolute RMS force accuracy = 0.0030026787
  estimated relative force accuracy = 9.0424779e-06
  using double precision FFTW3
  3d grid and FFT values/proc = 39304 19683
Generated 0 of 1 mixed pair_coeff terms from geometric mixing rule
WARNING: Not all mixed pair coeffs generated from mixing. Use write_data with 'pair ij' option to store all pair coeffs. (src/write_data.cpp:309)
write_restart     water2.restart
System init for write_restart ...
PPPM initialization ...
  using 12-bit tables for long-range coulomb (src/kspace.cpp:342)
  G vector (1/distance) = 0.30397936
  grid = 27 27 27
  stencil order = 5
  estimated absolute RMS force accuracy = 0.0030026787
  estimated relative force accuracy = 9.0424779e-06
  using double precision FFTW3
  3d grid and FFT values/proc = 39304 19683
Generated 0 of 1 mixed pair_coeff terms from geometric mixing rule
Total wall time: 1:11:50
