LAMMPS (4 May 2022)
OMP_NUM_THREADS environment is not set. Defaulting to 1 thread. (src/comm.cpp:98)
  using 1 OpenMP thread(s) per MPI task
# spc water - 1=O, 2=H

read_restart    water1.restart
Reading restart file ...
  restart file = 4 May 2022, LAMMPS = 4 May 2022
  restoring atom style full from restart
  orthogonal box = (-0.56286081 -0.56286081 -0.56286081) to (19.162861 19.162861 19.162861)
  1 by 1 by 1 MPI processor grid
  restoring pair style lj/cut/coul/long from restart
  restoring bond style harmonic from restart
  restoring angle style harmonic from restart
  648 atoms
  432 bonds
  216 angles
Finding 1-2 1-3 1-4 neighbors ...
  special bond factors lj:    0        0        0       
  special bond factors coul:  0        0        0       
     2 = max # of 1-2 neighbors
     1 = max # of 1-3 neighbors
     1 = max # of 1-4 neighbors
     2 = max # of special neighbors
  special bonds CPU = 0.000 seconds
  read_restart CPU = 0.004 seconds

kspace_style   pppm 1.0e-5

group oxygen type 1
216 atoms in group oxygen

#======================
neighbor        2.0 bin
neigh_modify    every 1 delay 1 check yes
#======================

#reset_timestep 0
timestep 1.0

fix            1 all shake 0.0001 20 0 b 1 a 1
       0 = # of size 2 clusters
       0 = # of size 3 clusters
       0 = # of size 4 clusters
     216 = # of frozen angles
  find clusters CPU = 0.000 seconds
fix            2 all npt temp 300.0 300.0 100.0 iso 1.0 1.0 1000.0
Resetting global fix info from restart file:
  fix style: npt, fix ID: 2
fix            3 all momentum 1 linear 1 1 1
fix	       xwall1 all wall/lj93 xlo EDGE 1.0 1.0 2.5 pbc yes
fix	       xwall2 all wall/lj93 xhi EDGE 1.0 1.0 2.5 pbc yes
fix	       ywall1 all wall/lj93 ylo EDGE 1.0 1.0 2.5 pbc yes
fix	       ywall2 all wall/lj93 yhi EDGE 1.0 1.0 2.5 pbc yes
fix	       zwall1 all wall/lj93 zlo EDGE 1.0 1.0 2.5 pbc yes
fix	       zwall2 all wall/lj93 zhi EDGE 1.0 1.0 2.5 pbc yes

compute	MSD oxygen msd com no
fix 4 oxygen ave/time 1 1 500 c_MSD[4] file ../spc6.msd

thermo 100
thermo_style custom step temp pe etotal press enthalpy lx ly lz pxx pyy pzz
thermo_modify flush yes


dump         2 all custom 1000 md2.lammpstrj id type x y z
#dump_modify  1 unwrap yes
run 100000
PPPM initialization ...
  using 12-bit tables for long-range coulomb (src/kspace.cpp:342)
  G vector (1/distance) = 0.30853852
  grid = 18 18 18
  stencil order = 5
  estimated absolute RMS force accuracy = 0.0021295765
  estimated relative force accuracy = 6.4131565e-06
  using double precision FFTW3
  3d grid and FFT values/proc = 15625 5832
Generated 0 of 1 mixed pair_coeff terms from geometric mixing rule
All restart file global fix info was re-assigned
Neighbor list info ...
  update every 1 steps, delay 1 steps, check yes
  max neighbors/atom: 2000, page size: 100000
  master list distance cutoff = 12
  ghost atom cutoff = 12
  binsize = 6, bins = 4 4 4
  1 neighbor lists, perpetual/occasional/extra = 1 0 0
  (1) pair lj/cut/coul/long, perpetual
      attributes: half, newton on
      pair build: half/bin/newton
      stencil: half/bin/3d
      bin: standard
Per MPI rank memory allocation (min/avg/max) = 11.8 | 11.8 | 11.8 Mbytes
   Step          Temp          PotEng         TotEng         Press         Enthalpy          Lx             Ly             Lz            Pxx            Pyy            Pzz      
      1000   298.4702      -1948.8134     -1565.3601     -4748.1823     -2096.8585      19.725722      19.725722      19.725722     -3487.7158     -5097.5611     -5659.2701    
      1100   315.98632     -1941.4766     -1535.5197     -2505.4077     -1810.7132      19.60174       19.60174       19.60174      -1733.5457     -3203.7672     -2578.9102    
      1200   312.82479     -1966.0559     -1564.1608     -1861.5346     -1763.3953      19.432968      19.432968      19.432968     -1933.6083     -2763.6539     -887.34153    
      1300   303.22048     -2012.1333     -1622.5771     -767.77534     -1702.8694      19.283592      19.283592      19.283592      692.35553     -1722.2095     -1273.4721    
      1400   295.3456      -2037.4111     -1657.972      -1086.7032     -1769.8807      19.18488       19.18488       19.18488      -1544.9605     -111.2404      -1603.9087    
      1500   292.3448      -2035.1964     -1659.6125     -433.78051     -1703.679       19.097979      19.097979      19.097979     -1438.001       769.34956     -632.69008    
      1600   316.36188     -2064.8134     -1658.3741     -26.344509     -1661.0145      19.012375      19.012375      19.012375     -2308.5294      2214.3601      15.135743    
      1700   304.30888     -2060.3195     -1669.365      -769.29482     -1745.683       18.947532      18.947532      18.947532      198.63371     -864.72425     -1641.7939    
      1800   292.92458     -2059.8376     -1683.5088     -575.07244     -1739.9459      18.879424      18.879424      18.879424      263.63094     -315.05517     -1673.7931    
      1900   300.30672     -2078.5504     -1692.7376     -63.551819     -1698.9246      18.82892       18.82892       18.82892       756.0311       852.86516     -1799.5517    
      2000   296.73318     -2080.889      -1699.6673      440.27991     -1657.0133      18.798288      18.798288      18.798288     -172.8611       1632.0295     -138.32865    
      2100   313.53359     -2100.2437     -1697.4379      695.33641     -1630.2721      18.779866      18.779866      18.779866      237.24391      2711.265      -862.49972    
      2200   313.27359     -2116.8822     -1714.4105     -420.81754     -1755.0825      18.78345       18.78345       18.78345      -493.57453      611.12498     -1380.0031    
      2300   289.73614     -2122.539      -1750.3066      389.54427     -1712.6975      18.776723      18.776723      18.776723      213.63582     -460.72956      1415.7266    
      2400   287.65394     -2109.9792     -1740.4218      140.83013     -1726.8132      18.782242      18.782242      18.782242      1421.6825      59.523966     -1058.7161    
      2500   306.3308      -2104.7455     -1711.1934      1551.6928     -1560.4167      18.817021      18.817021      18.817021      2851.552       1604.6822      198.84428    
      2600   318.06132     -2114.3117     -1705.6891      954.32588     -1611.9882      18.882395      18.882395      18.882395      1350.747       831.01397      681.21664    
      2700   297.38645     -2090.0413     -1707.9803     -309.11763     -1738.6973      18.958027      18.958027      18.958027     -580.98788      485.47532     -831.84034    
      2800   284.14924     -2076.3887     -1711.3339     -536.86109     -1765.1248      19.010367      19.010367      19.010367     -250.90718     -268.61794     -1091.0581    
      2900   297.51177     -2091.2851     -1709.063      -1261.666      -1835.4179      19.007453      19.007453      19.007453     -195.78499     -1784.6774     -1804.5356    
      3000   292.95519     -2078.5055     -1702.1374      549.8203      -1647.5838      18.948533      18.948533      18.948533     -1272.9724      1578.5642      1343.8691    
      3100   307.20093     -2088.4158     -1693.7458      1171.8754     -1578.1687      18.910578      18.910578      18.910578      721.78151      1409.7655      1384.0791    
      3200   288.34556     -2083.9962     -1713.5503     -30.439343     -1716.5508      18.907261      18.907261      18.907261     -1056.5564      991.34793     -26.109604    
      3300   297.84928     -2101.3334     -1718.6777     -156.86647     -1734.1101      18.894797      18.894797      18.894797      127.49487     -11.448817     -586.64547    
      3400   304.30152     -2120.1387     -1729.1936      295.83482     -1700.1459      18.882621      18.882621      18.882621     -616.91758      500.57861      1003.8434    
      3500   301.31183     -2103.316      -1716.212       206.21866     -1695.9501      18.886813      18.886813      18.886813     -969.69695      1552.6113      35.741599    
      3600   310.51305     -2095.024      -1696.0988      695.12444     -1627.6309      18.902369      18.902369      18.902369     -1601.334       2395.5189      1291.1884    
      3700   322.18851     -2101.9018     -1687.9768      163.82252     -1671.7204      18.949251      18.949251      18.949251     -147.07634      1048.4949     -409.95095    
      3800   316.72882     -2118.121      -1711.2103     -670.15177     -1778.4155      19.015945      19.015945      19.015945     -1998.374      -699.95734      687.87607    
      3900   305.55975     -2119.7513     -1727.1898     -1260.3708     -1854.4221      19.057873      19.057873      19.057873     -2317.7739     -1798.2039      334.86536    
      4000   282.62587     -2115.4439     -1752.3463     -932.39271     -1846.3396      19.049086      19.049086      19.049086     -946.86613     -2636.4815      786.1695     
      4100   293.88514     -2124.9039     -1747.3411     -186.39763     -1766.0016      19.005025      19.005025      19.005025      107.34166      3.9804334     -670.51498    
      4200   295.87854     -2105.9691     -1725.8453      292.20792     -1696.7975      18.960451      18.960451      18.960451     -681.42881     -177.30192      1735.3545    
      4300   320.82385     -2118.6444     -1706.4726      41.400753     -1702.3755      18.932139      18.932139      18.932139      637.32247     -894.96567      381.84546    
      4400   306.08884     -2103.7149     -1710.4737      463.62577     -1664.6639      18.922201      18.922201      18.922201      603.80397      673.98122      113.09214    
      4500   303.10203     -2128.0945     -1738.6905      1096.2919     -1630.0732      18.939376      18.939376      18.939376      62.808248      2609.5883      616.47914    
      4600   279.09172     -2109.2617     -1750.7044     -628.05324     -1813.3195      18.978808      18.978808      18.978808     -1197.0998     -1205.2811      518.22115    
      4700   288.74903     -2112.8991     -1741.9348      1522.4172     -1589.8274      18.992416      18.992416      18.992416      2368.0617      962.1393       1237.0505    
      4800   303.2459      -2110.9893     -1721.4004     -293.74712     -1750.8671      19.017818      19.017818      19.017818     -347.39381     -800.05652      266.20896    
      4900   305.56298     -2114.5674     -1722.0018     -991.61116     -1821.5991      19.025824      19.025824      19.025824     -742.42597     -2160.0648     -72.342744    
      5000   283.52615     -2098.1596     -1733.9053      317.96501     -1702.0811      19.003514      19.003514      19.003514      587.84682     -510.61265      876.66087    
      5100   294.3732      -2104.5867     -1726.3969     -214.59173     -1747.8047      18.982853      18.982853      18.982853     -1670.7115      7.1208752      1019.8154    
      5200   314.57582     -2103.8152     -1699.6705     -74.306391     -1707.0729      18.973914      18.973914      18.973914     -932.53919     -270.69496      980.31497    
      5300   308.32788     -2087.5161     -1691.3983      106.67689     -1680.7659      18.977033      18.977033      18.977033      294.20078      411.26914     -385.43925    
      5400   298.02423     -2092.308      -1709.4276      596.86295     -1649.9107      18.980017      18.980017      18.980017      2121.7074     -919.00957      587.89103    
      5500   306.12838     -2106.3341     -1713.042       686.19011     -1644.458       18.994777      18.994777      18.994777      1018.2847      2027.727      -987.44138    
      5600   285.95678     -2094.2368     -1726.8598     -159.30677     -1742.8888      19.036986      19.036986      19.036986      166.74388      1224.6393     -1869.3035    
      5700   301.68977     -2097.7282     -1710.1386     -630.99831     -1774.0497      19.079081      19.079081      19.079081     -1020.9938     -235.88403     -636.11705    
      5800   296.38549     -2069.3831     -1688.608      -880.19858     -1777.7777      19.080376      19.080376      19.080376     -653.97109     -1145.2497     -841.37496    
      5900   300.82078     -2054.6646     -1668.1914     -782.17907     -1746.7556      19.026006      19.026006      19.026006     -538.89482     -726.04398     -1081.5984    
      6000   312.96754     -2080.3419     -1678.2634      574.72457     -1621.1802      18.955021      18.955021      18.955021      452.22172      314.57455      957.37744    
      6100   280.12313     -2060.9891     -1701.1067      177.0858      -1683.6672      18.901295      18.901295      18.901295      1335.2791      338.51318     -1142.5348    
      6200   301.46149     -2094.8169     -1707.5205      488.66939     -1659.7559      18.854071      18.854071      18.854071     -90.699523      2250.2444     -693.53668    
      6300   293.46784     -2093.8993     -1716.8726      675.17691     -1651.1982      18.823528      18.823528      18.823528      1057.9106      956.12751      11.492578    
      6400   306.68725     -2119.7994     -1725.7893      675.74211     -1659.9956      18.829667      18.829667      18.829667      1072.0259      778.61519      176.58528    
      6500   286.11771     -2125.445      -1757.8612      76.534934     -1750.3567      18.873993      18.873993      18.873993      2119.9486     -647.10178     -1243.242     
      6600   308.5129      -2152.7924     -1756.4368      100.80424     -1746.4908      18.913186      18.913186      18.913186      2584.7562     -1106.6907     -1175.6528    
      6700   286.78628     -2109.0601     -1740.6174      563.09314     -1684.7832      18.944424      18.944424      18.944424      1800.6277     -149.30503      37.956744    
      6800   307.09531     -2099.1047     -1704.5704      252.47978     -1679.3968      18.979317      18.979317      18.979317      351.58897      100.68282      305.16756    
      6900   308.57234     -2084.6796     -1688.2478      325.28218     -1655.5654      19.027965      19.027965      19.027965      504.77915      149.55537      321.51203    
      7000   306.45078     -2084.6363     -1690.93       -1677.8195     -1860.948       19.082031      19.082031      19.082031     -1892.4316     -1835.7593     -1305.2676    
      7100   307.32998     -2095.0793     -1700.2436     -98.232291     -1710.2217      19.097373      19.097373      19.097373     -1318.6488      118.6315       905.32044    
      7200   262.51299     -2065.9833     -1728.7253     -252.06408     -1754.3245      19.096194      19.096194      19.096194     -1853.7068      466.35046      631.16414    
      7300   299.65751     -2104.756      -1719.7772     -594.9339      -1780.0065      19.076014      19.076014      19.076014     -303.25291     -1919.0815      437.53276    
      7400   299.29459     -2081.6509     -1697.1385     -288.88724     -1726.2284      19.042017      19.042017      19.042017     -1366.2477      17.181452      482.4045     
      7500   310.19286     -2094.3393     -1695.8255      9.8651325     -1694.8355      19.020608      19.020608      19.020608     -392.01654      732.03171     -310.41978    
      7600   307.19592     -2093.7912     -1699.1277      284.86934     -1670.5873      19.00987       19.00987       19.00987       544.04363     -130.16644      440.73082    
      7700   289.18089     -2071.2496     -1699.7305     -299.8006      -1729.798       19.016456      19.016456      19.016456     -281.52138     -174.98034     -442.90009    
      7800   303.02835     -2088.4425     -1699.1332     -389.4265      -1738.1615      19.011927      19.011927      19.011927     -401.08384     -809.80365      42.607989    
      7900   287.57771     -2074.8891     -1705.4297      571.03761     -1648.2531      19.006071      19.006071      19.006071     -623.41623      1260.1014      1076.4277    
      8000   320.46634     -2125.9783     -1714.2659     -948.61318     -1809.4085      19.016767      19.016767      19.016767     -1476.9134     -1078.9309     -289.99528    
      8100   286.73222     -2089.5541     -1721.1809      393.35556     -1681.8275      19.000873      19.000873      19.000873     -957.64881      903.29721      1234.4183    
      8200   300.36573     -2110.276      -1724.3874      645.30599     -1660.0819      18.975889      18.975889      18.975889      416.18567      1245.1359      274.59639    
      8300   309.27385     -2106.7239     -1709.3908      156.72443     -1693.7611      18.980697      18.980697      18.980697     -81.644586     -934.68138      1486.4992    
      8400   304.04722     -2086.6656     -1696.0473      203.73908     -1675.5998      19.020859      19.020859      19.020859     -251.99127      143.61174      719.59676    
      8500   316.5879      -2089.5135     -1682.7838     -625.25852     -1746.0188      19.069557      19.069557      19.069557     -1069.9374     -115.91398     -689.92421    
      8600   299.92749     -2093.8635     -1708.5379     -319.84452     -1741.0083      19.093734      19.093734      19.093734      142.2541      -722.36046     -379.4272     
      8700   297.6145      -2109.7592     -1727.4052     -1080.1175     -1837.4265      19.115102      19.115102      19.115102     -1969.4446     -478.90354     -792.00449    
      8800   287.46395     -2113.1352     -1743.8218     -1724.7133     -1919.1643      19.102846      19.102846      19.102846     -1342.3865     -1971.2228     -1860.5307    
      8900   310.68062     -2116.4887     -1717.3482     -130.34556     -1730.4766      19.043462      19.043462      19.043462      330.82335     -254.31638     -467.54366    
      9000   311.21588     -2109.2116     -1709.3835      2257.4383     -1483.9902      18.988167      18.988167      18.988167      4636.4817      1533.0952      602.73798    
      9100   312.44039     -2122.3343     -1720.933      -556.02607     -1776.6126      19.006773      19.006773      19.006773     -521.3444      -981.03487     -165.69893    
      9200   294.17413     -2100.8396     -1722.9055     -962.85936     -1819.4711      19.016387      19.016387      19.016387     -1052.9845     -849.62506     -985.96853    
      9300   290.40594     -2100.257      -1727.164      -116.22809     -1738.7641      18.985654      18.985654      18.985654     -463.4819      -107.08266      221.88029    
      9400   313.76803     -2096.3223     -1693.2153     -461.86799     -1738.9743      18.939165      18.939165      18.939165     -256.45889     -1092.8793     -36.265832    
      9500   321.01727     -2102.7415     -1690.3213      779.51444     -1613.5277      18.903475      18.903475      18.903475      625.56521      886.12337      826.85474    
      9600   298.73548     -2106.1839     -1722.3897     -1234.4523     -1843.8329      18.894746      18.894746      18.894746     -997.91947     -2533.2612     -172.17621    
      9700   301.3075      -2124.4813     -1737.3828      108.28816     -1726.7783      18.865861      18.865861      18.865861      532.05505     -488.43639      281.24581    
      9800   275.13873     -2100.604      -1747.1253      595.25722     -1689.2928      18.816142      18.816142      18.816142      1060.3433     -44.105427      769.53375    
      9900   310.61616     -2137.7404     -1738.6828      2002.0712     -1545.8933      18.760425      18.760425      18.760425      1804.8406      571.23593      3630.1371    
     10000   309.67686     -2140.8146     -1742.9637      2070.8234     -1543.4463      18.763791      18.763791      18.763791      2557.5684      2425.3979      1229.504     
     10100   295.33362     -2136.4207     -1756.997       294.50526     -1728.2808      18.838786      18.838786      18.838786      1654.0072     -1158.7673      388.27584    
     10200   282.28728     -2137.1038     -1774.4411     -895.16838     -1863.057       18.934059      18.934059      18.934059     -569.89136     -1778.214      -337.39979    
     10300   303.9996      -2159.2543     -1768.6972     -1771.4025     -1945.5866      18.989035      18.989035      18.989035     -2486.1063     -2094.0694     -734.03173    
     10400   309.4226      -2143.4356     -1745.9114     -786.14928     -1824.4672      18.993244      18.993244      18.993244      446.86941     -2195.1284     -610.18882    
     10500   310.63472     -2110.8823     -1711.8009      73.405496     -1704.4843      18.97733       18.97733       18.97733       591.73811     -859.41047      487.88885    
     10600   299.03072     -2096.8715     -1712.698       944.89437     -1618.604       18.971468      18.971468      18.971468      2115.1432      101.40996      618.12991    
     10700   296.86887     -2103.0569     -1721.6609      435.18514     -1678.2121      18.987845      18.987845      18.987845      26.490209      653.83445      625.23076    
     10800   294.87946     -2104.969      -1726.1288      352.61596     -1690.7694      19.015553      19.015553      19.015553      977.68398     -81.473358      161.63726    
     10900   273.76148     -2113.4227     -1761.7134     -517.84342     -1813.7544      19.02935       19.02935       19.02935      -1538.2081     -495.72937      480.40719    
     11000   282.92064     -2114.3849     -1750.9085      681.5981      -1682.5359      19.017754      19.017754      19.017754      1200.5241     -541.35276      1385.6229    
     11100   301.40287     -2111.5136     -1724.2925      632.21977     -1660.8878      19.016298      19.016298      19.016298     -596.72684      775.26435      1718.1218    
     11200   304.7762      -2114.8233     -1723.2684      306.29598     -1692.4893      19.028864      19.028864      19.028864      970.7713       164.59213     -216.47551    
     11300   302.3808      -2128.343      -1739.8656      149.51771     -1724.8113      19.041329      19.041329      19.041329     -775.41123     -799.85295      2023.8173    
     11400   288.97257     -2139.9849     -1768.7334     -861.45955     -1855.68        19.056683      19.056683      19.056683     -888.38135     -1135.8939     -560.10341    
     11500   284.29809     -2124.5954     -1759.3494     -304.66973     -1790.127       19.062361      19.062361      19.062361      369.95908     -194.21141     -1089.7569    
     11600   287.62664     -2112.5495     -1743.0272     -531.47735     -1796.7223      19.062998      19.062998      19.062998     -305.44795     -1558.117       269.13287    
     11700   305.14235     -2120.172      -1728.1468      1043.3112     -1623.2393      19.032925      19.032925      19.032925      2242.5813      865.34688      22.005475    
     11800   305.58882     -2110.9103     -1718.3115      1454.6033     -1572.1481      19.028563      19.028563      19.028563      194.51621      2316.8304      1852.4634    
     11900   292.44343     -2100.1816     -1724.471      -60.529975     -1730.5831      19.059617      19.059617      19.059617      677.29648     -856.83399     -2.0524157    
     12000   291.79282     -2104.3193     -1729.4446      444.78737     -1684.3163      19.090029      19.090029      19.090029     -437.18026      238.32482      1533.2176    
     12100   296.04856     -2104.8685     -1724.5263     -1393.8932     -1866.8736      19.131453      19.131453      19.131453     -2925.4745     -1047.2272     -208.978      
     12200   313.53991     -2103.2388     -1700.4249     -2159.3736     -1920.7456      19.125693      19.125693      19.125693     -2542.8622     -1839.8723     -2095.3862    
     12300   314.48672     -2092.3845     -1688.3543      1884.183      -1498.3433      19.051384      19.051384      19.051384      2009.459       1393.2647      2249.8253    
     12400   300.79189     -2116.3261     -1729.89        43.441739     -1725.5231      19.031114      19.031114      19.031114     -525.64338      1966.6591     -1310.6905    
     12500   288.70548     -2122.3714     -1751.4631     -300.59255     -1781.6986      19.035068      19.035068      19.035068     -754.69337     -1121.9332      974.84893    
     12600   298.58152     -2113.8838     -1730.2874     -934.14075     -1824.1737      19.029967      19.029967      19.029967     -24.424685      245.51629     -3023.5138    
     12700   314.18069     -2126.2102     -1722.5731      354.9921      -1687.1411      18.986019      18.986019      18.986019     -867.50738      2204.9442     -272.46053    
     12800   307.13211     -2133.7758     -1739.1942      1790.3121     -1561.5778      18.94783       18.94783       18.94783       1280.8274      1881.1125      2208.9964    
     12900   305.21564     -2136.8763     -1744.7569      555.19995     -1689.378       18.981898      18.981898      18.981898     -335.87045      1755.3761      246.09416    
     13000   308.13312     -2136.1578     -1740.2902      510.33545     -1688.8173      19.05237       19.05237       19.05237       640.45632      303.41452      587.13551    
     13100   306.33281     -2134.0023     -1740.4476     -686.74682     -1810.8322      19.154391      19.154391      19.154391     -765.68512     -1031.9754     -262.5799     
     13200   287.38906     -2119.166      -1749.9489      21.052562     -1747.7595      19.24786       19.24786       19.24786       455.00987     -1181.9348      790.08259    
     13300   296.65526     -2119.2158     -1738.0942     -1322.4091     -1876.9487      19.309578      19.309578      19.309578     -1210.1875     -524.89888     -2232.141     
     13400   285.88832     -2098.5226     -1731.2336     -1755.3174     -1915.601       19.311567      19.311567      19.311567     -3193.8158     -299.75699     -1772.3793    
     13500   276.06137     -2088.3499     -1733.6858     -105.2347      -1744.5911      19.22506       19.22506       19.22506       452.93971     -664.5687      -104.07511    
     13600   304.23107     -2112.9959     -1722.1414      971.73429     -1623.51        19.092546      19.092546      19.092546      941.78527      1123.3309      850.08671    
     13700   299.08079     -2090.7342     -1706.4964      2891.1341     -1416.9842      19.006736      19.006736      19.006736      1956.4339      4929.8228      1787.1457    
     13800   325.71252     -2088.9106     -1670.4582      1243.5383     -1545.3356      19.037074      19.037074      19.037074      2178.141       1961.8779     -409.40402    
     13900   327.04097     -2079.9837     -1659.8246      255.98745     -1633.7152      19.12352       19.12352       19.12352       766.48868      1899.9723     -1898.4987    
     14000   295.44362     -2083.7976     -1704.2326     -1041.5646     -1811.7832      19.202171      19.202171      19.202171     -1760.2362      268.94598     -1633.4035    
     14100   300.94102     -2094.1171     -1707.4894     -2361.4856     -1951.8091      19.214648      19.214648      19.214648     -2270.8735     -1831.3282     -2982.2552    
     14200   289.05926     -2075.1516     -1703.7887      383.87928     -1664.4108      19.159947      19.159947      19.159947      456.66241      940.18967     -245.21423    
     14300   314.96344     -2099.1107     -1694.468      -376.60644     -1732.9227      19.1306        19.1306        19.1306       -541.93578      485.33551     -1073.219     
     14400   300.48121     -2101.4824     -1715.4454      66.859924     -1708.6385      19.111833      19.111833      19.111833     -1320.2625     -645.3275       2166.1698    
     14500   284.4643      -2095.7563     -1730.2967      244.89487     -1705.4536      19.089003      19.089003      19.089003      670.92421     -55.781286      119.54167    
     14600   286.89461     -2092.5777     -1723.9959      109.70213     -1712.8773      19.083298      19.083298      19.083298      916.95828      259.65494     -847.50685    
     14700   314.82015     -2099.0418     -1694.5831      705.25781     -1622.999       19.092572      19.092572      19.092572      83.127884      1073.6852      958.96034    
     14800   304.65655     -2083.3091     -1691.908       666.09256     -1624.0147      19.1193        19.1193        19.1193        590.38432      1062.2706      345.6228     
     14900   298.96333     -2096.926      -1712.8391     -758.91545     -1790.8631      19.174304      19.174304      19.174304     -1391.5919      424.59327     -1309.7478    
     15000   299.5545      -2121.1315     -1736.2851     -2000.7683     -1943.3141      19.215552      19.215552      19.215552     -2214.1898     -1609.4527     -2178.6623    
     15100   280.79318     -2107.2284     -1746.4852     -858.7285      -1835.091       19.197444      19.197444      19.197444     -344.91836      1140.2403     -3371.5074    
     15200   292.80548     -2100.8886     -1724.7129     -733.92807     -1799.9364      19.154668      19.154668      19.154668     -910.79773     -1221.1258     -69.860664    
     15300   305.29502     -2104.2869     -1712.0655      856.70588     -1624.9799      19.102032      19.102032      19.102032      972.2559       159.08028      1438.7815    
     15400   318.86423     -2118.0573     -1708.4032      695.87566     -1637.746       19.094849      19.094849      19.094849     -385.78342      1993.111       480.29939    
     15500   307.36555     -2109.8718     -1714.9904     -427.19543     -1758.5658      19.12405       19.12405       19.12405      -644.70842      324.65983     -961.5377     
     15600   285.13606     -2105.1017     -1738.7791     -1913.8079     -1934.3671      19.136214      19.136214      19.136214     -678.7305      -4036.0968     -1026.5964    
     15700   283.26797     -2123.7675     -1759.8449     -1703.6843     -1932.3642      19.077623      19.077623      19.077623     -2659.031      -955.75936     -1496.2626    
     15800   298.97866     -2108.2746     -1724.168       1000.2673     -1624.453       18.978253      18.978253      18.978253      1722.7428      680.9615       597.09776    
     15900   317.08387     -2134.9886     -1727.6217      28.903762     -1724.7711      18.910564      18.910564      18.910564     -437.41911     -288.74577      812.87617    
     16000   305.17594     -2129.8095     -1737.7411      953.12501     -1644.1418      18.883489      18.883489      18.883489      1184.4008      947.20434      727.76984    
     16100   293.31678     -2119.4556     -1742.623       278.90154     -1715.1111      18.91172       18.91172       18.91172       318.9875       662.24979     -144.53267    
     16200   305.32961     -2132.7439     -1740.4781     -924.92387     -1832.3315      18.954159      18.954159      18.954159      787.29121     -2292.7044     -1269.3584    
     16300   306.92563     -2094.1338     -1699.8175     -873.68712     -1786.8787      18.97569       18.97569       18.97569      -113.27973     -1389.584      -1118.1976    
     16400   322.84979     -2097.2945     -1682.52       -78.150285     -1690.31        18.97776       18.97776       18.97776      -588.22154     -299.43669      653.20737    
     16500   301.99801     -2106.5412     -1718.5555     -1423.0217     -1860.0011      18.959811      18.959811      18.959811     -279.05899     -1004.0573     -2985.9488    
     16600   307.84351     -2129.8769     -1734.3814      85.319212     -1725.9745      18.904782      18.904782      18.904782     -1277.789       1242.5286      291.21806    
     16700   279.65719     -2104.38       -1745.0963      1541.6643     -1594.2016      18.86265       18.86265       18.86265       3762.4543      1235.7872     -373.24874    
     16800   291.00782     -2125.9802     -1752.114       157.23708     -1736.7349      18.858188      18.858188      18.858188      373.53265     -626.06308      724.24167    
     16900   300.33261     -2128.8337     -1742.9876     -184.13144     -1760.9566      18.843991      18.843991      18.843991     -198.04783      1046.0229     -1400.3694    
     17000   305.03849     -2107.2344     -1715.3426      272.5379      -1688.8853      18.811108      18.811108      18.811108     -1063.1595      1602.3796      278.39356    
     17100   308.86134     -2110.7141     -1713.9109      91.718555     -1705.0392      18.788492      18.788492      18.788492     -447.13545      612.91133      109.37979    
     17200   309.37906     -2118.2046     -1720.7363      206.7106      -1700.8114      18.766613      18.766613      18.766613     -458.18816      875.54937      202.77057    
     17300   294.07659     -2123.0636     -1745.2548     -521.876       -1795.328       18.737885      18.737885      18.737885     -250.72172     -299.24232     -1015.664     
     17400   283.78268     -2124.6804     -1760.0965      180.20138     -1742.9057      18.701959      18.701959      18.701959     -1060.0579     -451.85835      2052.5204    
     17500   299.90227     -2120.0311     -1734.7379      1469.9457     -1595.0595      18.677438      18.677438      18.677438      1551.0461      1343.6426      1515.1484    
     17600   323.17454     -2118.8051     -1703.6133      700.09509     -1636.9589      18.689543      18.689543      18.689543      615.55284      474.50782      1010.2246    
     17700   307.64044     -2108.864      -1713.6294     -138.39932     -1726.9114      18.739227      18.739227      18.739227      709.55273     -198.93116     -925.81954    
     17800   288.05438     -2098.2377     -1728.1658     -169.3686      -1744.5529      18.790158      18.790158      18.790158     -524.81194      79.018207     -62.312065    
     17900   291.35479     -2086.6994     -1712.3874     -765.20965     -1786.6895      18.812577      18.812577      18.812577     -1347.1304     -740.49423     -208.00436    
     18000   306.25141     -2091.1154     -1697.6653      692.4561      -1630.5542      18.800765      18.800765      18.800765      562.83059     -219.74316      1734.2809    
     18100   308.90839     -2104.3335     -1707.4699     -647.82004     -1770.1643      18.791706      18.791706      18.791706      36.259047     -448.64168     -1531.0775    
     18200   312.40745     -2127.0485     -1725.6895     -7.3699197     -1726.4002      18.768784      18.768784      18.768784     -118.39361     -976.70666      1072.9905    
     18300   311.21102     -2143.2877     -1743.4658      894.57405     -1657.5391      18.74471       18.74471       18.74471       2419.9842      558.92275     -295.18484    
     18400   296.25796     -2141.9201     -1761.3088      98.546486     -1751.8469      18.742221      18.742221      18.742221     -37.995038      894.62764     -560.99314    
     18500   294.66279     -2134.3569     -1755.795       32.323581     -1752.6835      18.758398      18.758398      18.758398     -291.78261      676.60173     -287.84837    
     18600   285.59575     -2114.715      -1747.8018     -91.427766     -1756.6455      18.788563      18.788563      18.788563     -177.53017      798.05421     -894.80734    
     18700   294.34321     -2115.0354     -1736.8841     -647.05397     -1799.7236      18.813609      18.813609      18.813609     -1346.2323     -125.20287     -469.72669    
     18800   312.47476     -2117.3139     -1715.8685      395.46259     -1677.3261      18.835876      18.835876      18.835876     -490.13348      1002.2198      674.3015     
     18900   297.69704     -2095.3859     -1712.9259     -273.06118     -1739.6966      18.873019      18.873019      18.873019     -344.25891      567.92668     -1042.8513    
     19000   295.78583     -2093.5557     -1713.5511     -93.895613     -1722.805       18.906104      18.906104      18.906104     -1378.8376      448.03496      649.11582    
     19100   292.01535     -2108.8747     -1733.7141     -726.75692     -1805.5816      18.927323      18.927323      18.927323     -1402.6831     -351.13734     -426.45033    
     19200   289.69641     -2109.428      -1737.2466     -388.70369     -1775.636       18.919317      18.919317      18.919317      455.2874      -292.16851     -1329.23      
     19300   323.78559     -2123.2327     -1707.2559      314.09047     -1676.3594      18.894105      18.894105      18.894105     -925.44072      639.64063      1228.0715    
     19400   320.52425     -2121.5977     -1709.8109     -453.79868     -1754.3322      18.877438      18.877438      18.877438     -738.84867     -117.01928     -505.52808    
     19500   305.6184      -2129.9165     -1737.2797     -238.10791     -1760.5681      18.858039      18.858039      18.858039     -1169.1804      111.31866      343.538      
     19600   287.93806     -2121.9537     -1752.0313      1519.4529     -1603.7771      18.842909      18.842909      18.842909      609.61513      3263.6265      685.11704    
     19700   307.56099     -2149.4065     -1754.274       200.66763     -1734.6444      18.85901       18.85901       18.85901       1351.8191     -506.80459     -243.01162    
     19800   295.02243     -2133.1062     -1754.0823      1331.2897     -1622.7408      18.912593      18.912593      18.912593      362.29469      1323.9794      2307.5949    
     19900   293.35299     -2133.7255     -1756.8464     -108.90055     -1767.7726      19.019009      19.019009      19.019009      602.93132     -554.24141     -375.39156    
     20000   275.3831      -2121.1298     -1767.3371     -805.26832     -1849.2908      19.109559      19.109559      19.109559     -1129.3596     -287.56213     -998.8832     
     20100   283.08867     -2120.4117     -1756.7195     -762.07602     -1834.4392      19.122838      19.122838      19.122838     -553.13198     -1422.0219     -311.07415    
     20200   303.19242     -2120.7824     -1731.2623     -1208.0433     -1853.6176      19.078962      19.078962      19.078962     -510.60871     -1472.5688     -1640.9523    
     20300   299.04716     -2112.9918     -1728.7972      650.55736     -1663.7479      18.997385      18.997385      18.997385     -104.41007      485.45899      1570.6232    
     20400   310.8074      -2136.1132     -1736.8098      1282.0775     -1609.8064      18.938332      18.938332      18.938332      1157.5953      2347.5227      341.11463    
     20500   299.19002     -2145.1276     -1760.7495     -43.23991      -1765.025       18.926712      18.926712      18.926712      313.8392       488.07703     -931.63596    
     20600   277.34736     -2145.5278     -1789.2116      73.896068     -1781.8979      18.932694      18.932694      18.932694      251.80071     -80.80281       50.690305    
     20700   299.14015     -2179.3791     -1795.065      -535.48847     -1848.1271      18.940274      18.940274      18.940274      418.57927     -1474.6724     -550.37231    
     20800   315.57651     -2160.6737     -1755.2434     -274.07876     -1782.3658      18.931824      18.931824      18.931824     -584.8858      -136.32077     -101.0297     
     20900   322.81822     -2159.6524     -1744.9185      412.10082     -1704.2306      18.917419      18.917419      18.917419      289.47864      104.77023      842.05358    
     21000   308.79681     -2158.575      -1761.8548      1062.0725     -1656.6412      18.938572      18.938572      18.938572      964.07173      1273.6873      948.45852    
     21100   285.97058     -2141.7534     -1774.3586     -804.04505     -1855.0053      19.017062      19.017062      19.017062     -104.64572     -982.03554     -1325.4539    
     21200   292.26051     -2144.2462     -1768.7706     -815.52632     -1851.3393      19.07658       19.07658       19.07658      -160.25761     -1387.3706     -898.9507     
     21300   300.84472     -2125.0209     -1738.5169     -192.14979     -1758.0508      19.102533      19.102533      19.102533     -1328.942       449.43444      303.05821    
     21400   303.64026     -2113.9816     -1723.8861     -465.35892     -1771.2263      19.106829      19.106829      19.106829      662.75275     -210.90402     -1847.9255    
     21500   309.17498     -2128.8452     -1731.6391     -16.813834     -1733.3475      19.099509      19.099509      19.099509      268.23193      528.4798      -847.15324    
     21600   282.71141     -2125.7602     -1762.5526      542.79859     -1707.4581      19.092575      19.092575      19.092575      2457.2103     -1025.8829      197.06834    
     21700   298.4755      -2160.7954     -1777.3352     -1108.6896     -1889.8687      19.092613      19.092613      19.092613     -1950.8944     -776.18807     -598.98629    
     21800   303.05266     -2166.9362     -1777.5956      52.258957     -1772.3301      19.045943      19.045943      19.045943     -1048.6611      1041.9407      163.49735    
     21900   286.48253     -2166.1266     -1798.0741      281.16588     -1769.9648      18.99637       18.99637       18.99637       786.6657       95.683736     -38.851785    
     22000   305.23883     -2188.2075     -1796.0583      215.52708     -1774.6396      18.958548      18.958548      18.958548      188.02069      89.306866      369.25368    
     22100   298.00538     -2158.0971     -1775.2409      2075.0495     -1569.1029      18.9562        18.9562        18.9562        3550.8363      1816.2363      858.07594    
     22200   294.96925     -2156.1582     -1777.2026      859.4925      -1691.0577      19.012409      19.012409      19.012409      1232.4591      1187.5758      158.44252    
     22300   290.88482     -2166.552      -1792.8438     -689.57641     -1862.8664      19.095299      19.095299      19.095299      515.19286     -1669.1196     -914.80248    
     22400   287.69852     -2177.9        -1808.2853     -812.01593     -1891.5056      19.154152      19.154152      19.154152     -441.22473     -1121.713      -873.11007    
     22500   290.97116     -2180.9079     -1807.0887     -1616.774      -1973.1476      19.168095      19.168095      19.168095     -1477.4046     -2103.0153     -1269.9022    
     22600   295.48749     -2167.3533     -1787.7319     -887.02467     -1877.9859      19.108134      19.108134      19.108134     -855.75877     -1452.4354     -352.87981    
     22700   299.80098     -2156.3338     -1771.1707      723.57979     -1698.5974      19.016833      19.016833      19.016833      383.67337     -615.31384      2402.3798    
     22800   314.72137     -2185.6771     -1781.3454      628.16594     -1718.832       18.967394      18.967394      18.967394      371.21008      237.71371      1275.574     
     22900   289.32794     -2172.5814     -1800.8733      2294.6215     -1572.1973      18.976287      18.976287      18.976287      2170.4901      2213.0272      2500.3471    
     23000   297.12886     -2173.4749     -1791.7448      246.76608     -1766.8203      19.061409      19.061409      19.061409     -140.6928       1317.5813     -436.59027    
     23100   276.56552     -2129.1115     -1773.7997     -1429.3459     -1920.2182      19.151122      19.151122      19.151122     -2072.9003     -417.13377     -1798.0037    
     23200   323.08132     -2162.4604     -1747.3884     -502.79521     -1799.1086      19.177749      19.177749      19.177749      301.0315      -668.0507      -1141.3664    
     23300   296.01508     -2137.2535     -1756.9543      856.58006     -1668.6663      19.190484      19.190484      19.190484      752.36176      1181.1828      636.19559    
     23400   310.58774     -2168.5852     -1769.5641     -1831.1028     -1958.9235      19.211711      19.211711      19.211711     -494.23402     -2302.1213     -2696.9529    
     23500   276.56241     -2142.7837     -1787.4759     -1142.3061     -1904.8261      19.169399      19.169399      19.169399     -662.6983      -1119.5016     -1644.7183    
     23600   300.18492     -2145.3445     -1759.6882      116.72918     -1747.8573      19.083333      19.083333      19.083333      42.311136     -26.525879      334.40228    
     23700   318.69021     -2163.9713     -1754.5407     -841.3977      -1838.8674      19.012067      19.012067      19.012067      710.83261     -1862.4949     -1372.5308    
     23800   293.09589     -2148.5768     -1772.028       1414.6818     -1631.7718      18.943596      18.943596      18.943596      1864.9943      2161.5537      217.49739    
     23900   296.74094     -2148.6766     -1767.4449      225.08284     -1745.2244      18.916671      18.916671      18.916671     -3.5540656      20.976586      657.826      
     24000   310.47412     -2149.651      -1750.7758      726.27121     -1678.9893      18.924428      18.924428      18.924428      1807.3047      966.68231     -595.17332    
     24100   325.18473     -2152.5888     -1734.8145     -206.49001     -1755.3685      18.968817      18.968817      18.968817     -168.96506     -529.6066       79.101623    
     24200   317.12676     -2110.2605     -1702.8386     -907.00044     -1793.883       19.022023      19.022023      19.022023      137.16025     -1289.4162     -1568.7454    
     24300   310.10745     -2093.3305     -1694.9264     -658.53241     -1761.3826      19.055809      19.055809      19.055809     -421.44614     -365.17776     -1188.9733    
     24400   302.23784     -2115.0378     -1726.744      -546.31482     -1781.8693      19.055078      19.055078      19.055078     -837.22867      1.7305298     -803.4463     
     24500   289.93493     -2120.8373     -1748.3495     -866.03211     -1835.3488      19.026928      19.026928      19.026928     -921.60026     -747.2581      -929.23796    
     24600   291.26228     -2117.3239     -1743.1308      481.59554     -1695.0854      18.982984      18.982984      18.982984     -476.70752      1097.349       824.14515    
     24700   314.48651     -2113.789      -1709.759      -276.73757     -1737.2695      18.960574      18.960574      18.960574      338.92037     -1575.7473      406.61425    
     24800   314.26876     -2122.4745     -1718.7242      1489.6026     -1570.5959      18.962572      18.962572      18.962572      760.63722      1303.5075      2404.6632    
     24900   298.23523     -2108.119      -1724.9675      344.94234     -1690.3453      19.021469      19.021469      19.021469      773.69656     -75.094456      336.22493    
     25000   286.81313     -2091.4468     -1722.9696      779.16912     -1643.7205      19.105674      19.105674      19.105674      1886.9294     -925.95268      1376.5307    
     25100   305.73142     -2096.1233     -1703.3413     -507.46676     -1755.7085      19.198116      19.198116      19.198116      978.48804     -992.79807     -1508.0903    
     25200   279.89816     -2089.2613     -1729.6679     -1703.5748     -1906.4528      19.233989      19.233989      19.233989     -1221.5621     -1534.7191     -2354.4431    
     25300   303.53127     -2140.1773     -1750.2218     -1067.9756     -1860.1487      19.181783      19.181783      19.181783     -804.63544     -1320.5538     -1078.7377    
     25400   317.13602     -2141.39       -1733.9562      1114.0597     -1620.6186      19.107177      19.107177      19.107177      1951.589       394.80507      995.78502    
     25500   305.70603     -2106.3051     -1713.5557      726.11853     -1639.9455      19.084679      19.084679      19.084679      459.04044      305.46393      1413.8512    
     25600   327.02011     -2114.8395     -1694.7073     -27.140695     -1697.4663      19.102359      19.102359      19.102359      40.534311      663.79506     -785.75146    
     25700   323.44856     -2130.7247     -1715.1809     -273.31192     -1743.0409      19.119756      19.119756      19.119756      85.838447     -659.46971     -246.3045     
     25800   302.15107     -2140.5656     -1752.3833     -800.81216     -1834.0726      19.124329      19.124329      19.124329     -1266.1651     -21.484528     -1114.7868    
     25900   296.41537     -2136.6471     -1755.8336     -867.69391     -1844.024       19.101153      19.101153      19.101153      106.30768     -1363.5423     -1345.8471    
     26000   300.49514     -2145.0539     -1758.999      -359.2047      -1795.1672      19.041584      19.041584      19.041584      56.141762     -1047.5722     -86.183666    
     26100   311.45987     -2141.7507     -1741.6091      1489.4741     -1593.009       18.983227      18.983227      18.983227      437.38725      1639.0506      2391.9844    
     26200   298.17378     -2121.2852     -1738.2127      1213.2237     -1617.0448      18.989937      18.989937      18.989937      2304.4599      53.522497      1281.6886    
     26300   286.09712     -2127.6148     -1760.0575      672.72319     -1692.1928      19.0536        19.0536        19.0536        793.21724      1185.8586      39.093727    
     26400   274.15246     -2116.5922     -1764.3805     -316.64134     -1796.6254      19.113448      19.113448      19.113448      140.79488     -471.15152     -619.56737    
     26500   303.55026     -2123.2969     -1733.3171      564.10175     -1675.5589      19.148143      19.148143      19.148143      746.00039      783.01424      163.29062    
     26600   301.40749     -2129.9285     -1742.7015     -548.14762     -1799.0939      19.178549      19.178549      19.178549      68.694023     -83.225431     -1629.9115    
     26700   296.5149      -2122.3008     -1741.3594     -580.62804     -1801.1358      19.183088      19.183088      19.183088      205.29854     -1538.6661     -408.51656    
     26800   293.16152     -2124.1942     -1747.5611      499.62088     -1696.4458      19.143057      19.143057      19.143057      1339.9729      107.12827      51.761508    
     26900   297.53886     -2123.9536     -1741.6968     -800.34324     -1823.0594      19.102532      19.102532      19.102532     -2228.6167     -180.55233      8.1393158    
     27000   308.59757     -2133.6627     -1737.1984     -1009.6218     -1839.0144      19.051411      19.051411      19.051411     -323.65358     -1871.054      -834.15789    
     27100   306.27493     -2120.5983     -1727.1179      808.03952     -1646.6059      18.975102      18.975102      18.975102      812.37484      1152.4816      459.26214    
     27200   317.86344     -2111.5111     -1703.1427      1441.3667     -1560.2019      18.945318      18.945318      18.945318      1857.7243      688.72637      1777.6494    
     27300   297.16115     -2117.8504     -1736.0788      214.84761     -1714.6325      18.986666      18.986666      18.986666     -1594.3106      1855.3573      383.49611    
     27400   278.6911      -2102.0704     -1744.0278     -250.14128     -1769.1565      19.026953      19.026953      19.026953     -1634.9666      1247.1474     -362.60469    
     27500   295.95995     -2112.6782     -1732.4499     -763.48048     -1809.282       19.038075      19.038075      19.038075     -1762.8357      684.98912     -1212.5948    
     27600   304.69905     -2106.5772     -1715.1215     -312.83887     -1746.5881      19.03492       19.03492       19.03492      -317.47801     -572.09965     -48.93895     
     27700   315.36963     -2112.6992     -1707.5347     -81.585721     -1715.7331      19.028928      19.028928      19.028928      564.07959     -576.89538     -231.94138    
     27800   298.33678     -2090.7444     -1707.4624      1089.0752     -1598.1259      19.022921      19.022921      19.022921      1048.294       1914.6521      304.27931    
     27900   292.35571     -2115.8479     -1740.25       -541.47062     -1794.6887      19.032055      19.032055      19.032055      187.00513     -846.71605     -964.70094    
     28000   301.83671     -2127.1999     -1739.4214     -80.521381     -1747.5271      19.040022      19.040022      19.040022      1139.7663     -300.76558     -1080.5649    
     28100   306.90857     -2114.1754     -1719.8811     -768.56485     -1797.3472      19.04811       19.04811       19.04811      -514.6029      -1109.2617     -681.82997    
     28200   299.65743     -2088.6738     -1703.6951     -1090.936      -1813.4532      19.036499      19.036499      19.036499     -1593.3204     -1274.3057     -405.18193    
     28300   320.57729     -2106.0667     -1694.2117      519.58694     -1642.2097      19.003293      19.003293      19.003293      2196.4927     -1992.1719      1354.44      
     28400   301.11854     -2113.2292     -1726.3734      958.65029     -1630.8302      18.976726      18.976726      18.976726      214.96335      2961.4006     -300.41308    
     28500   307.14602     -2140.3188     -1745.7194      281.12912     -1717.7614      18.96305       18.96305       18.96305       70.421469      623.15075      149.81515    
     28600   294.35446     -2135.6898     -1757.524       498.40469     -1707.8958      18.971004      18.971004      18.971004     -184.06819      851.78848      827.49377    
     28700   291.33907     -2118.5044     -1744.2126     -418.1625      -1786.0895      19.007182      19.007182      19.007182     -1045.3763     -23.326663     -185.78449    
     28800   300.32265     -2098.8187     -1712.9854     -523.20748     -1765.6825      19.043449      19.043449      19.043449     -69.12349      -8.5025571     -1491.9964    
     28900   295.97053     -2088.0311     -1707.7892     -1372.7628     -1846.2636      19.053117      19.053117      19.053117     -1176.9374     -1674.547      -1266.804     
     29000   300.20356     -2093.6295     -1707.9493      113.48903     -1696.5688      19.015592      19.015592      19.015592      927.18731      222.55846     -809.27868    
     29100   300.53953     -2116.8672     -1730.7553     -296.57749     -1760.3         18.973842      18.973842      18.973842     -521.03917     -593.53569      224.84238    
     29200   280.29347     -2127.4243     -1767.3231      419.44749     -1725.7234      18.945759      18.945759      18.945759      1432.5411      57.471238     -231.66985    
     29300   300.87619     -2142.7371     -1756.1927      226.73298     -1733.7285      18.939421      18.939421      18.939421     -727.04966      526.07978      881.16883    
     29400   300.53655     -2138.6044     -1752.4964      71.785547     -1745.3681      18.953571      18.953571      18.953571     -322.20595     -1579.0308      2116.5934    
     29500   300.36611     -2133.4542     -1747.5651     -170.67437     -1764.5494      18.967115      18.967115      18.967115     -343.77479      467.59189     -635.8402     
     29600   310.93739     -2112.1737     -1712.7033     -648.10438     -1777.3078      18.977862      18.977862      18.977862     -2454.8568      300.47623      210.06748    
     29700   311.96503     -2110.6417     -1709.8512     -333.03854     -1742.9851      18.96565       18.96565       18.96565      -971.34549      123.50748     -151.2776     
     29800   294.71959     -2097.2282     -1718.5934     -450.85761     -1763.1691      18.926095      18.926095      18.926095     -486.71062     -353.7715      -512.0907     
     29900   288.14952     -2121.274      -1751.08        1478.1856     -1606.3632      18.864181      18.864181      18.864181      589.05963      1756.3173      2089.1799    
     30000   298.9791      -2154.4781     -1770.3709      893.03659     -1683.1978      18.845709      18.845709      18.845709      762.5747       993.71658      922.81848    
     30100   289.80224     -2136.2339     -1763.9166      529.75339     -1712.0115      18.869197      18.869197      18.869197      393.25093     -557.66376      1753.673     
     30200   304.83855     -2155.5981     -1763.9631     -140.56227     -1777.8107      18.903547      18.903547      18.903547     -311.62618      509.19439     -619.25503    
     30300   297.64719     -2135.2014     -1752.8053     -427.4342      -1795.1339      18.936349      18.936349      18.936349     -1048.7544      251.18118     -484.7294     
     30400   332.44291     -2153.5453     -1726.4462      603.47677     -1666.2818      18.978759      18.978759      18.978759      417.98142      1416.9599     -24.510986    
     30500   308.54777     -2132.498      -1736.0977     -825.33375     -1819.2955      19.048856      19.048856      19.048856     -1620.4573     -828.01134     -27.532578    
     30600   289.35397     -2128.9311     -1757.1896     -1625.014      -1922.1512      19.0934        19.0934        19.0934       -2617.3813     -519.164       -1738.4966    
     30700   282.38259     -2128.7684     -1765.9833     -155.75399     -1781.7543      19.077208      19.077208      19.077208      514.99036     -25.390483     -956.86185    
     30800   303.74269     -2141.5075     -1751.2805      433.20709     -1707.7406      19.029989      19.029989      19.029989      1416.3765     -1374.8863      1258.1311    
     30900   312.34023     -2129.1937     -1727.9212      736.02882     -1654.0041      19.025002      19.025002      19.025002      1400.0448      1662.0705     -854.02883    
     31000   305.93685     -2135.8796     -1742.8336     -1230.4697     -1867.0738      19.059218      19.059218      19.059218     -398.81925     -2304.8264     -987.76347    
     31100   289.95009     -2123.2848     -1750.7775     -631.45326     -1814.5366      19.059367      19.059367      19.059367     -735.37175     -431.55934     -727.42868    
     31200   300.04445     -2126.6333     -1741.1574     -310.15084     -1772.3193      19.027936      19.027936      19.027936     -26.994381     -1226.3554      322.89726    
     31300   318.63443     -2141.983      -1732.624       358.11133     -1696.9725      18.969748      18.969748      18.969748      992.09744     -394.97541      477.21197    
     31400   293.35003     -2146.4694     -1769.5941     -283.53973     -1797.6365      18.928178      18.928178      18.928178      66.637807     -791.13754     -126.11947    
     31500   285.01533     -2147.7652     -1781.5977      308.83301     -1751.2352      18.890595      18.890595      18.890595      210.88973      566.39795      149.21133    
     31600   305.53531     -2148.0619     -1755.5318      840.14597     -1673.2054      18.869893      18.869893      18.869893     -456.60989      1708.0647      1268.9832    
     31700   308.95443     -2132.6931     -1735.7703      611.38016     -1675.8003      18.876244      18.876244      18.876244      665.51975     -283.56005      1452.1808    
     31800   315.77802     -2109.2891     -1703.5998      1088.7031     -1596.1763      18.913475      18.913475      18.913475      1660.2685     -502.99049      2108.8314    
     31900   329.05999     -2117.8843     -1695.1314     -442.70303     -1739.3969      18.997326      18.997326      18.997326      81.424387     -110.16281     -1299.3707    
     32000   288.37953     -2102.6795     -1732.1899     -1035.0404     -1836.8098      19.066036      19.066036      19.066036     -771.8974      -1054.8183     -1278.4055    
     32100   295.69808     -2113.0467     -1733.1548      82.878495     -1724.7612      19.078437      19.078437      19.078437      82.093525      1098.9667     -932.42471    
     32200   294.51023     -2114.4491     -1736.0832     -235.28155     -1759.9296      19.083275      19.083275      19.083275     -519.88292     -646.45418      460.49245    
     32300   298.20564     -2113.6946     -1730.5812     -852.77068     -1817.0662      19.087288      19.087288      19.087288      248.09702     -2350.9371     -455.47195    
     32400   310.39409     -2101.4165     -1702.6441      330.6192      -1669.2588      19.05976       19.05976       19.05976       619.38428      192.1968       180.27652    
     32500   316.67677     -2103.547      -1696.7031      856.46906     -1610.345       19.050451      19.050451      19.050451      1846.5721     -1045.8107      1768.6458    
     32600   291.91669     -2097.7725     -1722.7386      275.76617     -1694.7794      19.085449      19.085449      19.085449      505.18884     -397.56326      719.67293    
     32700   288.88277     -2105.1636     -1734.0275     -539.29146     -1788.9791      19.117316      19.117316      19.117316     -700.18844     -1090.4964      172.81044    
     32800   285.24821     -2088.8453     -1722.3786      373.81233     -1684.2102      19.130446      19.130446      19.130446     -342.27883      548.02219      915.69362    
     32900   302.25436     -2087.2829     -1698.9679      1233.8696     -1572.3226      19.163786      19.163786      19.163786      458.62097      1624.3795      1618.6084    
     33000   310.30124     -2081.9147     -1683.2616     -66.507785     -1690.1575      19.228592      19.228592      19.228592     -371.34828     -180.04841      351.87333    
     33100   291.63046     -2069.5501     -1694.884      -1408.7946     -1842.0127      19.274863      19.274863      19.274863     -1838.6557     -726.35344     -1661.3745    
     33200   308.6218      -2105.408      -1708.9125     -2113.4209     -1928.7414      19.248975      19.248975      19.248975     -2950.3126     -2504.6744     -885.27553    
     33300   291.78103     -2094.5666     -1719.7071      763.06383     -1641.4514      19.158417      19.158417      19.158417      766.86334      1685.0949     -162.7667     
     33400   309.37258     -2115.2073     -1717.7473      697.45593     -1646.8793      19.099376      19.099376      19.099376      627.56031      623.56443      841.24304    
     33500   323.64564     -2106.2358     -1690.4389      1411.9437     -1547.1097      19.093276      19.093276      19.093276      1081.8575      640.72969      2513.2441    
     33600   323.81399     -2129.4156     -1713.4023     -1079.9103     -1823.6956      19.132065      19.132065      19.132065     -834.35579     -1452.4521     -952.92309    
     33700   275.94478     -2093.2521     -1738.7378     -1618.6386     -1904.3463      19.143393      19.143393      19.143393     -2015.0695     -1377.7267     -1463.1196    
     33800   283.25353     -2097.782      -1733.878      -138.72613     -1747.9847      19.104277      19.104277      19.104277     -289.5612       852.49453     -979.11174    
     33900   296.50868     -2097.8512     -1716.9178     -460.14678     -1763.2377      19.039922      19.039922      19.039922      311.712       -1539.5117     -152.64065    
     34000   312.76072     -2095.1183     -1693.3055      1044.2992     -1589.1954      18.978594      18.978594      18.978594      1902.3756      735.00708      495.51497    
     34100   305.16327     -2091.2693     -1699.2172      2194.1822     -1481.4313      18.950778      18.950778      18.950778      2859.2757      1412.9394      2310.3316    
     34200   310.28639     -2127.0904     -1728.4565      380.32311     -1690.5202      18.982008      18.982008      18.982008      1078.1414     -310.90558      373.73347    
     34300   295.75926     -2118.2083     -1738.2378     -1034.813      -1842.5155      19.046622      19.046622      19.046622     -872.54976     -612.51388     -1619.3754    
     34400   283.52922     -2098.3425     -1734.0843     -760.45676     -1811.2748      19.092869      19.092869      19.092869     -5.027657      -1303.892      -972.45064    
     34500   305.2481      -2108.7927     -1716.6316     -439.71109     -1761.405       19.112852      19.112852      19.112852      4.2079093     -10.140666     -1313.2005    
     34600   304.4403      -2098.4245     -1707.3012     -1276.8904     -1837.7955      19.136129      19.136129      19.136129     -1034.0419     -1360.3242     -1436.305     
     34700   312.91273     -2066.6866     -1664.6785     -343.16177     -1699.6384      19.116065      19.116065      19.116065      167.73632      26.692534     -1223.9142    
     34800   330.0991      -2064.1589     -1640.071       100.24657     -1629.9461      19.061112      19.061112      19.061112      1.4716277      557.87972     -258.61162    
     34900   311.25588     -2076.0764     -1676.1969      97.335699     -1666.4395      19.013497      19.013497      19.013497     -790.69585      762.53346      320.16949    
     35000   318.50634     -2099.4423     -1690.2479     -819.45864     -1771.7987      18.967428      18.967428      18.967428     -1245.2408     -982.75455     -230.38057    
     35100   307.46519     -2108.1951     -1713.1856      6.8911506     -1712.5063      18.907374      18.907374      18.907374      475.97845     -1106.6615      651.3565     
     35200   283.83168     -2102.923      -1738.2761      577.60631     -1681.7682      18.859662      18.859662      18.859662      581.70305      604.78745      546.32844    
     35300   300.44429     -2137.1199     -1751.1304      609.2977      -1691.7145      18.839337      18.839337      18.839337      185.67902      1413.4679      228.74622    
     35400   289.48945     -2154.991      -1783.0755     -910.13053     -1871.7963      18.837155      18.837155      18.837155     -1622.2059     -137.55273     -970.63297    
     35500   292.45939     -2183.549      -1807.8179      39.813813     -1803.9521      18.812416      18.812416      18.812416     -693.13143      246.11126      566.46161    
     35600   304.0019      -2180.77       -1790.2099      1115.1453     -1682.3852      18.786119      18.786119      18.786119     -1007.9851      1607.671       2745.7498    
     35700   301.56204     -2146.7544     -1759.3288      864.20453     -1675.5524      18.802246      18.802246      18.802246     -103.02879      1471.7146      1223.9277    
     35800   331.37944     -2171.3175     -1745.5846     -374.87641     -1782.1734      18.844937      18.844937      18.844937     -1723.92        256.91342      342.3773     
     35900   309.95728     -2160.7808     -1762.5696     -2209.7158     -1979.3819      18.878051      18.878051      18.878051     -3271.4704     -1307.7458     -2049.9311    
     36000   288.64997     -2151.9999     -1781.1629     -91.289563     -1790.0645      18.838959      18.838959      18.838959      203.09981     -204.66895     -272.29954    
     36100   284.75259     -2143.9721     -1778.1422      1417.6355     -1640.8781      18.794847      18.794847      18.794847      2196.646       900.49951      1155.761     
     36200   303.36557     -2158.1327     -1768.3901     -857.77737     -1851.6152      18.80765       18.80765       18.80765      -493.12921     -1234.4277     -845.77515    
     36300   298.32511     -2145.5831     -1762.3162     -478.99713     -1808.8203      18.811674      18.811674      18.811674     -286.80629     -1180.8996      30.714476    
     36400   302.061       -2139.3341     -1751.2676      197.95197     -1732.075       18.803224      18.803224      18.803224      775.13448     -1660.4242      1479.1457    
     36500   293.12608     -2106.2692     -1729.6816      2204.8332     -1515.6523      18.810797      18.810797      18.810797      1366.78        2249.7657      2997.9537    
     36600   303.08479     -2130.5816     -1741.1997      1337.5849     -1609.9359      18.879159      18.879159      18.879159      2546.8054      1227.2881      238.66136    
     36700   311.09212     -2169.8926     -1770.2235     -1962.163      -1965.6497      18.972472      18.972472      18.972472     -2712.5317     -1290.4471     -1883.5102    
     36800   286.1668      -2146.0834     -1778.4365     -350.75045     -1813.5565      19.006121      19.006121      19.006121     -687.1858      -66.575105     -298.49045    
     36900   280.60606     -2132.1814     -1771.6786      622.05714     -1709.4789      18.997394      18.997394      18.997394      2213.7555      123.96093     -471.54505    
     37000   316.46376     -2151.8272     -1745.257       415.7827      -1703.6711      18.999171      18.999171      18.999171      401.82623      1004.5408     -159.01891    
     37100   288.18441     -2114.7057     -1744.4668     -697.76175     -1814.6553      19.035352      19.035352      19.035352     -774.26743      43.529197     -1362.547     
     37200   300.81793     -2116.4031     -1729.9336     -602.36218     -1790.8542      19.069687      19.069687      19.069687      178.17025     -1830.0413     -155.21548    
     37300   292.73196     -2103.6319     -1727.5506     -1217.0353     -1850.7792      19.077034      19.077034      19.077034     -1304.6876     -462.49475     -1883.9237    
     37400   296.80733     -2103.4365     -1722.1195     -780.42678     -1800.653       19.037752      19.037752      19.037752     -364.33631     -863.05043     -1113.8936    
     37500   322.35795     -2135.1288     -1720.9862      104.665       -1710.5604      18.973352      18.973352      18.973352     -2157.9492      1064.2846      1407.6595    
     37600   302.04291     -2135.6158     -1747.5724     -395.37855     -1786.6732      18.92774       18.92774       18.92774      -119.53702     -72.683088     -993.91554    
     37700   282.36817     -2147.1017     -1784.3351      267.01995     -1758.0792      18.891611      18.891611      18.891611     -838.78366      223.35224      1416.4913    
     37800   292.69882     -2149.3213     -1773.2826      659.2459      -1708.6893      18.869248      18.869248      18.869248     -311.81471      797.17788      1492.3745    
     37900   306.84723     -2161.6236     -1767.408      -825.37743     -1848.2071      18.863667      18.863667      18.863667     -368.66014     -87.779975     -2019.6922    
     38000   296.26573     -2149.6221     -1769.0009      501.60438     -1720.0214      18.847719      18.847719      18.847719      842.09949      184.02353      478.69013    
     38100   314.48647     -2146.9393     -1742.9093      658.34425     -1678.5807      18.852045      18.852045      18.852045     -81.131063      779.05255      1277.1113    
     38200   305.59693     -2117.2086     -1724.5993      1378.7189     -1588.9292      18.896335      18.896335      18.896335      897.69584      1786.7693      1451.6915    
     38300   307.70391     -2088.0274     -1692.7113     -621.42468     -1754.5445      18.966442      18.966442      18.966442     -1436.6806      652.68713     -1080.2806    
     38400   314.21788     -2083.4908     -1679.8059      65.039894     -1673.2932      19.006472      19.006472      19.006472      441.82689      969.4342      -1216.1414    
     38500   312.79307     -2129.9629     -1728.1085     -28.583028     -1730.9826      19.033048      19.033048      19.033048     -174.21869      2036.0941     -1947.6245    
     38600   282.66435     -2109.6479     -1746.5008     -1695.239      -1917.4871      19.052478      19.052478      19.052478     -2168.8493     -1367.6549     -1549.2128    
     38700   300.31301     -2112.973      -1727.1521      397.7422      -1687.219       19.023263      19.023263      19.023263      845.09791      209.63487      138.49383    
     38800   312.91574     -2108.8626     -1706.8506      136.22556     -1693.2133      19.004886      19.004886      19.004886      1526.6905      634.82797     -1752.8418    
     38900   303.64628     -2096.1265     -1706.0233     -304.19496     -1736.505       19.010937      19.010937      19.010937     -1593.4475     -302.85499      983.71764    
     39000   293.70421     -2098.6582     -1721.3279     -627.28343     -1784.3337      19.025976      19.025976      19.025976     -1930.3413      18.963349      29.527695    
     39100   281.50018     -2120.0622     -1758.4107      710.76979     -1686.9211      19.034701      19.034701      19.034701      1912.6285     -105.71074      325.39166    
     39200   284.55706     -2133.7055     -1768.1267     -646.65367     -1833.3626      19.053715      19.053715      19.053715     -1031.7752      398.36431     -1306.5501    
     39300   318.10326     -2143.5561     -1734.8796     -731.75185     -1808.7583      19.058692      19.058692      19.058692     -1360.6961     -315.76248     -518.79703    
     39400   309.30434     -2131.3019     -1733.9296      310.13022     -1702.7538      19.031186      19.031186      19.031186     -8.4947047     -67.390736      1006.2761    
     39500   313.14466     -2152.4014     -1750.0953      344.69004     -1715.5914      19.004418      19.004418      19.004418      352.85798      743.17617     -61.964016    
     39600   297.63352     -2146.8741     -1764.4957      1132.5212     -1651.2117      18.999789      18.999789      18.999789      536.74301      1263.1674      1597.6534    
     39700   298.0341      -2139.4931     -1756.6        -537.50043     -1810.6262      19.030492      19.030492      19.030492     -1685.8185     -77.862012      151.17919    
     39800   311.74255     -2132.8853     -1732.3806     -114.62816     -1743.9634      19.064065      19.064065      19.064065      244.71935     -71.144217     -517.45961    
     39900   315.65672     -2106.7369     -1701.2036      100.70729     -1690.9715      19.098923      19.098923      19.098923     -115.52953     -693.53438      1111.1858    
     40000   293.36274     -2070.4194     -1693.5277     -441.77573     -1738.8084      19.15483       19.15483       19.15483      -1313.3024     -1047.0367      1035.0119    
     40100   306.62308     -2087.7587     -1693.8311      252.6104      -1667.7273      19.206983      19.206983      19.206983      472.37561      76.03469       209.42091    
     40200   283.07216     -2084.8208     -1721.1498      638.72314     -1654.6151      19.258383      19.258383      19.258383      297.95844      1473.9007      144.31028    
     40300   280.9421      -2094.45       -1733.5155     -1525.1401     -1893.3387      19.296777      19.296777      19.296777     -1691.924      -2194.5417     -688.9547     
     40400   282.50796     -2076.0099     -1713.0637     -105.06084     -1724.0356      19.274734      19.274734      19.274734      638.95768      544.28048     -1498.4207    
     40500   323.91693     -2101.5275     -1685.382       111.139       -1673.8324      19.243063      19.243063      19.243063     -42.824393     -47.506088      423.74749    
     40600   300.42637     -2086.9067     -1700.9402     -822.26821     -1786.0182      19.215098      19.215098      19.215098     -881.85086     -142.10972     -1442.844     
     40700   308.36787     -2110.4349     -1714.2658     -1161.0517     -1833.5273      19.168628      19.168628      19.168628     -959.81047     -1636.0328     -887.31175    
     40800   304.93914     -2113.5747     -1721.8106      175.88069     -1703.9115      19.109325      19.109325      19.109325     -614.5455       352.27656      789.91101    
     40900   288.19675     -2103.1272     -1732.8724      1319.6878     -1599.303       19.074508      19.074508      19.074508     -497.53241      1741.0412      2715.5546    
     41000   303.52383     -2125.3076     -1735.3617      1868.0421     -1545.7418      19.092982      19.092982      19.092982      1419.8669      1683.2165      2501.0427    
     41100   314.45681     -2148.3977     -1744.4059     -1494.1437     -1897.6222      19.157796      19.157796      19.157796     -803.9653      -1868.226      -1810.2398    
     41200   291.97808     -2127.4735     -1752.3607     -486.86691     -1802.4135      19.174059      19.174059      19.174059      377.15753     -611.78874     -1225.9695    
     41300   287.44624     -2113.6528     -1744.3623     -192.38316     -1764.0676      19.150493      19.150493      19.150493      689.01603      842.19714     -2108.3626    
     41400   320.29641     -2137.3431     -1725.849       742.61631     -1650.113       19.122913      19.122913      19.122913      717.48411      2326.8437     -816.47887    
     41500   295.81314     -2126.45       -1746.4102      1189.2322     -1625.1341      19.122484      19.122484      19.122484      431.03214      2116.1457      1020.5187    
     41600   293.05085     -2146.2775     -1769.7865     -234.73461     -1793.904       19.170201      19.170201      19.170201     -353.58951      284.17538     -634.78969    
     41700   285.25435     -2125.5653     -1759.0907     -2011.9109     -1967.0768      19.209522      19.209522      19.209522     -2516.9328     -1923.1065     -1595.6935    
     41800   301.55716     -2130.2513     -1742.832      -652.4201      -1810.129       19.19541       19.19541       19.19541      -640.39159     -142.77699     -1174.0917    
     41900   293.13696     -2107.9403     -1731.3387     -552.45851     -1788.0049      19.159443      19.159443      19.159443     -358.19528     -487.37348     -811.80676    
     42000   323.51763     -2139.8923     -1724.2597      894.04825     -1633.2257      19.112711      19.112711      19.112711      677.37757      2258.7746     -254.00737    
     42100   290.18855     -2119.0987     -1746.285       452.91718     -1700.1858      19.110252      19.110252      19.110252     -892.75046      1463.2528      788.24921    
     42200   282.33867     -2126.1942     -1763.4655     -582.86481     -1822.9129      19.12331       19.12331       19.12331       1126.9314     -1663.266      -1212.2598    
     42300   301.54034     -2153.3528     -1765.9552      16.909222     -1764.2338      19.111507      19.111507      19.111507      917.53223     -103.5608      -763.24377    
     42400   297.4122      -2107.3705     -1725.2763      298.83101     -1694.9935      19.082353      19.082353      19.082353      650.87618      343.53992     -97.923059    
     42500   294.23074     -2089.5393     -1711.5325      1309.3209     -1579.3809      19.05681       19.05681       19.05681       2616.8061      608.2994       702.85739    
     42600   298.03612     -2092.5705     -1709.6748      277.36933     -1681.5957      19.075803      19.075803      19.075803      787.32397      189.91488     -145.13086    
     42700   303.44607     -2073.9891     -1684.1431      244.8249      -1659.2348      19.107512      19.107512      19.107512     -1127.4079      1148.1352      713.74745    
     42800   306.92277     -2077.6254     -1683.3127      780.28119     -1603.6554      19.129319      19.129319      19.129319     -96.192351      1221.9126      1215.1234    
     42900   321.87146     -2103.0281     -1689.5104     -710.63197     -1762.26        19.147114      19.147114      19.147114     -1723.2731     -517.49725      108.87447    
     43000   295.75885     -2087.4425     -1707.4725      758.15943     -1629.8089      19.151101      19.151101      19.151101      1285.559       1415.3233     -426.40398    
     43100   299.76422     -2100.0109     -1714.8951     -397.77537     -1755.8303      19.180556      19.180556      19.180556     -279.24296      338.47617     -1252.5593    
     43200   297.89068     -2119.7785     -1737.0696     -1222.5331     -1863.4346      19.208646      19.208646      19.208646     -2364.4224      381.78806     -1684.9649    
     43300   285.07557     -2119.8573     -1753.6124      248.83737     -1727.8956      19.20767       19.20767       19.20767       1388.5766     -1847.4229      1205.3584    
     43400   317.43235     -2129.5893     -1721.7748     -134.97998     -1735.7307      19.210477      19.210477      19.210477     -1499.055       367.1319       726.98313    
     43500   293.89706     -2084.9366     -1707.3585      620.46507     -1643.0644      19.224687      19.224687      19.224687      117.0556       784.50708      959.83253    
     43600   307.20663     -2082.8762     -1688.1989     -557.9048      -1746.2034      19.24606       19.24606       19.24606      -1460.0367      522.39735     -736.07506    
     43700   289.98628     -2084.0428     -1711.489      -1635.3381     -1880.9448      19.224614      19.224614      19.224614     -2334.0234     -1407.2415     -1164.7496    
     43800   276.92158     -2123.9748     -1768.2056     -442.00624     -1813.3583      19.133442      19.133442      19.133442      37.923949     -807.45837     -556.48431    
     43900   293.90901     -2139.3764     -1761.7829      478.35931     -1713.7554      19.023335      19.023335      19.023335      625.84051      795.08383      14.153604    
     44000   290.80496     -2121.4776     -1747.872       2201.4556     -1528.8521      18.965572      18.965572      18.965572      2380.4165      2018.961       2204.9893    
     44100   286.38635     -2108.4531     -1740.5242      1803.2428     -1560.4881      18.98788       18.98788       18.98788       2002.4474      2302.2773      1105.0038    
[...]
     91200   301.68315     -2053.3694     -1665.7882      193.47888     -1645.7571      19.219055      19.219055      19.219055     -125.20047     -261.49844      967.13556    
     91300   299.43481     -2049.0759     -1664.3833     -2305.2261     -1905.4145      19.282407      19.282407      19.282407     -2061.027      -2084.7327     -2769.9186    
     91400   298.41192     -2075.0671     -1691.6886     -992.75527     -1795.0281      19.253785      19.253785      19.253785      431.04285     -1500.0868     -1909.2219    
     91500   283.04956     -2085.5077     -1721.8656     -449.42833     -1767.9245      19.153972      19.153972      19.153972      496.74175     -1007.7199     -837.30681    
     91600   300.55235     -2110.4938     -1724.3655      1002.681      -1623.2896      19.048884      19.048884      19.048884      1699.9851      771.67598      536.38198    
     91700   315.46659     -2092.0126     -1686.7235      1410.3031     -1545.8188      18.992364      18.992364      18.992364      2322.5714      1662.7744      245.56355    
     91800   320.79342     -2089.2023     -1677.0696     -57.524175     -1682.8125      18.987511      18.987511      18.987511      249.95829      364.6273      -787.15812    
     91900   300.79725     -2097.3582     -1710.9152     -176.4613      -1728.5828      19.00571       19.00571       19.00571      -1150.9975      600.0285       21.585117    
     92000   288.70185     -2081.5305     -1710.6269      100.02241     -1700.5953      19.016566      19.016566      19.016566     -977.41473      666.01474      611.46721    
     92100   299.67427     -2094.5657     -1709.5654     -92.33293      -1718.8406      19.026717      19.026717      19.026717      281.15017     -709.82531      151.67635    
     92200   277.93611     -2099.2569     -1742.1843     -631.96828     -1805.7423      19.034126      19.034126      19.034126     -1082.1841      37.376921     -851.09771    
     92300   282.29919     -2121.0666     -1758.3886      141.57783     -1744.1869      19.01763       19.01763       19.01763       847.50228     -76.648882     -346.1199     
     92400   288.54846     -2099.6901     -1728.9835      515.68458     -1677.5516      18.981226      18.981226      18.981226     -1383.5158      1735.6418      1194.9277    
     92500   297.5589      -2104.692      -1722.4094      322.35943     -1690.456       18.942324      18.942324      18.942324      890.50292     -812.99342      889.56878    
     92600   301.20127     -2107.7057     -1720.7437      369.63918     -1684.2227      18.921819      18.921819      18.921819     -146.65242      839.48096      416.08899    
     92700   300.0582      -2109.7818     -1724.2883     -981.82374     -1821.3201      18.923506      18.923506      18.923506     -583.56283     -762.55135     -1599.357     
     92800   281.08793     -2112.7116     -1751.5897      288.86996     -1723.1142      18.907354      18.907354      18.907354      91.866879      771.4856       3.2574062    
     92900   278.31676     -2114.7726     -1757.2109      901.28981     -1668.5961      18.891019      18.891019      18.891019      1037.6494      277.56746      1388.6526    
     93000   288.573       -2137.7948     -1767.0567     -45.09054      -1771.4958      18.899304      18.899304      18.899304      1534.9023     -857.36328     -812.81064    
     93100   299.35423     -2123.1999     -1738.6108     -501.03621     -1787.9898      18.905979      18.905979      18.905979     -549.80096      346.29369     -1299.6014    
     93200   322.16755     -2136.7471     -1722.849       458.47102     -1677.7237      18.89779       18.89779       18.89779       112.93334      1696.2616     -433.78187    
     93300   285.98085     -2091.1007     -1723.6927      1132.9752     -1611.8999      18.91353       18.91353       18.91353      -10.195888      3037.3546      371.76687    
     93400   295.00822     -2103.4851     -1724.4794     -970.39353     -1820.7655      18.94872       18.94872       18.94872      -1407.3123      83.201448     -1587.0697    
     93500   318.90525     -2107.3145     -1697.6076      922.76996     -1605.8747      18.960592      18.960592      18.960592      871.78432      617.73861      1278.7869    
     93600   316.93912     -2105.8191     -1698.6382     -144.48117     -1713.1128      19.00958       19.00958       19.00958      -7.440254       639.07857     -1065.0818    
     93700   279.1763      -2087.3765     -1728.7105     -1538.6204     -1883.9575      19.054837      19.054837      19.054837     -1766.6421     -777.40137     -2071.8178    
     93800   299.0371      -2111.066      -1726.8843      478.00856     -1678.8682      19.02648       19.02648       19.02648      -119.99477      1487.1542      66.866292    
     93900   312.37224     -2122.2612     -1720.9475      2213.6777     -1499.1381      19.010633      19.010633      19.010633      2322.5517      3350.1558      968.32552    
     94000   287.8867      -2110.0825     -1740.2261      332.15708     -1706.6303      19.070195      19.070195      19.070195     -165.87564      1483.4157     -321.06882    
     94100   286.08289     -2118.096      -1750.557      -1197.8519     -1873.2411      19.150045      19.150045      19.150045     -418.69811     -1387.2812     -1787.5764    
     94200   305.38565     -2107.0455     -1714.7077     -1324.1236     -1851.0448      19.183883      19.183883      19.183883     -1252.2786     -1501.4314     -1218.6608    
     94300   289.44886     -2066.1689     -1694.3055      253.7368      -1668.1846      19.182681      19.182681      19.182681      37.563312      1204.0038     -480.35669    
     94400   322.31158     -2103.4867     -1689.4036      672.35316     -1620.1645      19.184895      19.184895      19.184895      1214.7192      2060.8038     -1258.4635    
     94500   315.12343     -2116.6987     -1711.8505     -787.1168      -1793.2665      19.213135      19.213135      19.213135      245.51044     -1536.1982     -1070.6627    
     94600   290.06366     -2110.5472     -1737.894      -1413.4229     -1884.4747      19.229867      19.229867      19.229867     -649.06076     -2298.2038     -1293.0042    
     94700   283.30694     -2116.7032     -1752.7305     -366.47508     -1790.5095      19.191551      19.191551      19.191551     -1906.553       44.592996      762.53479    
     94800   281.66012     -2100.6952     -1738.8383      84.844727     -1730.1809      19.126182      19.126182      19.126182     -433.4523       1413.1794     -725.1929     
     94900   311.09585     -2108.5163     -1708.8425      1607.1566     -1546.8858      19.046779      19.046779      19.046779      1563.5322      934.0139       2323.9237    
     95000   302.28276     -2107.3645     -1719.013       234.37731     -1695.579       18.99701       18.99701       18.99701       51.018329     -157.41012      809.52374    
     95100   280.24454     -2090.8446     -1730.8063      1127.0879     -1618.9637      18.949212      18.949212      18.949212      1140.0382      437.35587      1803.8695    
     95200   290.64513     -2109.2038     -1735.8035      16.563461     -1734.1694      18.912687      18.912687      18.912687      168.56344      2.7429449     -121.61601    
     95300   311.76627     -2135.7872     -1735.252       784.90883     -1658.3061      18.872527      18.872527      18.872527      1097.0022      1733.2787     -475.5545     
     95400   320.04285     -2137.5358     -1726.3675      1367.254      -1592.4557      18.866781      18.866781      18.866781      1862.9149     -858.58932      3097.4366    
     95500   295.54979     -2120.2782     -1740.5768     -667.93383     -1806.648       18.929297      18.929297      18.929297     -1281.2342      209.58126     -932.14853    
     95600   284.45244     -2120.1706     -1754.7263     -499.0779      -1804.7653      19.014652      19.014652      19.014652     -616.21905     -733.33382     -147.68083    
     95700   310.8829      -2110.697      -1711.2967     -468.60848     -1758.9419      19.103416      19.103416      19.103416     -794.43376     -1052.3401      440.94843    
     95800   309.43839     -2091.6937     -1694.1492     -1416.7857     -1840.0309      19.184049      19.184049      19.184049     -1210.2784     -2905.0566     -135.02204    
     95900   310.30621     -2090.3703     -1691.7108     -1436.9241     -1840.3591      19.213953      19.213953      19.213953     -1611.2672     -826.23164     -1873.2734    
     96000   307.69661     -2073.0767     -1677.7699     -714.34299     -1751.2943      19.181518      19.181518      19.181518     -2393.0507     -998.23817      1248.26      
     96100   320.53458     -2091.8185     -1680.0184      199.37236     -1659.677       19.125524      19.125524      19.125524      635.94129     -823.10547      785.28125    
     96200   287.14622     -2105.136      -1736.2309      242.97176     -1711.611       19.081748      19.081748      19.081748      175.25434     -404.27451      957.93544    
     96300   293.26751     -2111.1747     -1734.4054      1440.5574     -1588.9559      19.05908       19.05908       19.05908       500.0386       2064.9951      1756.6385    
     96400   299.71751     -2124.5087     -1739.4529      301.99914     -1708.8024      19.092024      19.092024      19.092024      1934.1823     -558.63249     -469.55239    
     96500   291.29125     -2108.1731     -1733.9428     -813.23011     -1817.0754      19.137886      19.137886      19.137886     -627.84666     -961.19172     -850.65194    
     96600   290.13015     -2099.3286     -1726.5899      792.94416     -1645.3254      19.154057      19.154057      19.154057     -550.33071      1269.1393      1660.0239    
     96700   315.02891     -2108.9934     -1704.2665     -97.916726     -1714.3332      19.174198      19.174198      19.174198     -1277.4318      817.27623      166.40543    
     96800   290.23157     -2075.499      -1702.6301     -918.73624     -1797.2626      19.186303      19.186303      19.186303      122.08273     -1715.0492     -1163.2423    
     96900   317.33264     -2095.7793     -1688.0928      0.64189084    -1688.027       19.150787      19.150787      19.150787     -776.0686       1528.5799     -750.58565    
     97000   309.06261     -2074.6981     -1677.6364      811.26974     -1595.1811      19.10113       19.10113       19.10113       779.02842      881.9877       772.79311    
     97100   308.83371     -2065.0173     -1668.2496      839.05559     -1583.0356      19.096257      19.096257      19.096257      2958.2064      144.42415     -585.46376    
     97200   287.48734     -2053.1668     -1683.8234     -742.48622     -1759.6199      19.129119      19.129119      19.129119     -814.13159     -1356.2759     -57.051212    
     97300   295.64119     -2087.5561     -1707.7373     -1317.9293     -1842.2634      19.12844       19.12844       19.12844       369.30762     -2573.8889     -1749.2067    
     97400   301.2201      -2110.7136     -1723.7274     -278.38332     -1751.8576      19.064169      19.064169      19.064169      823.83393      609.08499     -2268.0689    
     97500   291.92758     -2106.6652     -1731.6173      382.76158     -1693.4891      18.97351       18.97351       18.97351       3043.3625      26.770853     -1921.8486    
     97600   318.68107     -2097.9149     -1688.4961      762.28036     -1613.48        18.896784      18.896784      18.896784     -50.492965      2313.6302      23.703878    
     97700   319.39425     -2093.1975     -1682.8625      1482.7226     -1537.702       18.864162      18.864162      18.864162      563.13766      717.26858      3167.7617    
     97800   310.90108     -2103.7454     -1704.3217     -305.68773     -1734.3951      18.894827      18.894827      18.894827      1273.0512     -372.12372     -1817.9906    
     97900   293.27091     -2100.4365     -1723.6628     -1013.7371     -1823.8431      18.923157      18.923157      18.923157     -530.05581     -703.04616     -1808.1094    
     98000   291.59983     -2110.7929     -1736.1661      172.0774      -1719.1836      18.914733      18.914733      18.914733      680.60842     -404.71356      240.33734    
     98100   308.91593     -2134.512      -1737.6388      241.27919     -1713.8233      18.915651      18.915651      18.915651     -191.502        280.12697      635.21259    
     98200   279.05332     -2116.4568     -1757.9489     -1342.3231     -1890.5577      18.921107      18.921107      18.921107     -2526.7411     -518.14082     -982.0874     
     98300   299.73895     -2114.5031     -1729.4198      671.61975     -1663.3015      18.899088      18.899088      18.899088      682.96433     -201.16999      1533.0649    
     98400   302.24887     -2094.7778     -1706.4698      880.47844     -1619.9867      18.884797      18.884797      18.884797      689.46775      693.24372      1258.7238    
     98500   315.78084     -2105.0982     -1699.4054      781.00596     -1622.6191      18.890834      18.890834      18.890834      702.08746      296.3592       1344.5712    
     98600   291.94988     -2098.0331     -1722.9565     -360.11304     -1758.5045      18.916183      18.916183      18.916183     -72.486974      358.26361     -1366.1157    
     98700   293.00107     -2116.156      -1739.729      -719.29207     -1810.9266      18.933379      18.933379      18.933379     -1531.5729     -73.034753     -553.26859    
     98800   317.11401     -2136.1557     -1728.7501     -890.98933     -1816.6375      18.911505      18.911505      18.911505     -1004.81       -1391.5345     -276.62349    
     98900   312.23359     -2130.7791     -1729.6435      1933.1788     -1540.1694      18.871249      18.871249      18.871249      2138.5378      2450.1119      1210.8866    
     99000   300.78368     -2144.6736     -1758.2481      667.28809     -1692.8894      18.867079      18.867079      18.867079     -862.47799      1747.977       1116.3653    
     99100   280.78406     -2132.3805     -1771.649       149.75862     -1756.9213      18.892493      18.892493      18.892493      846.65228     -39.237514     -358.1389     
     99200   292.78789     -2129.1579     -1753.0048     -361.74339     -1788.7177      18.916881      18.916881      18.916881     -662.28183     -843.6108       420.66245    
     99300   299.27024     -2113.2521     -1728.7709      41.676831     -1724.648       18.929711      18.929711      18.929711     -636.52787     -152.94368      914.50204    
     99400   295.94309     -2088.4577     -1708.251       52.348056     -1703.0592      18.94589       18.94589       18.94589      -1581.8051      127.53004      1611.3192    
     99500   297.20724     -2079.8663     -1698.0355     -570.50352     -1754.6315      18.947443      18.947443      18.947443     -1643.3066     -1178.8556      1110.6516    
     99600   316.83607     -2123.301      -1716.2524      253.01595     -1691.2878      18.913283      18.913283      18.913283     -454.09294      778.99553      434.14526    
     99700   293.68755     -2129.2792     -1751.9703      1186.5888     -1635.2405      18.894492      18.894492      18.894492      491.97221      2854.8472      212.94692    
     99800   291.69561     -2132.039      -1757.2892     -385.74378     -1795.3976      18.921194      18.921194      18.921194      276.96469     -1475.7249      41.528901    
     99900   289.63027     -2119.8778     -1747.7813      247.35152     -1723.3218      18.92718       18.92718       18.92718       589.26202     -330.18487      482.97741    
    100000   320.00602     -2131.1227     -1720.0016     -1446.4551     -1862.9372      18.922849      18.922849      18.922849     -796.17274     -2162.3789     -1380.8137    
    100100   303.2136      -2119.3933     -1729.846       1257.8747     -1606.2288      18.88811       18.88811       18.88811       820.05053      1137.5098      1816.0638    
    100200   310.39479     -2131.6659     -1732.8927      252.78712     -1708.1125      18.872296      18.872296      18.872296      498.68548     -269.01465      528.69055    
    100300   300.97356     -2141.5243     -1754.8548     -78.969501     -1762.622       18.893361      18.893361      18.893361     -94.387084      702.12533     -844.64675    
    100400   288.80406     -2143.2283     -1772.1933      1053.2653     -1668.0244      18.928152      18.928152      18.928152      1975.385       1561.2679     -376.85697    
    100500   278.0374      -2146.2686     -1789.0658     -582.03292     -1847.1015      18.979749      18.979749      18.979749     -2414.0684      917.11797     -249.14832    
    100600   294.80468     -2162.0712     -1783.327      -1771.3956     -1960.7553      19.008322      19.008322      19.008322     -1708.949      -1378.0175     -2227.2203    
    100700   294.25177     -2136.4255     -1758.3917      70.935802     -1751.3067      18.990331      18.990331      18.990331      26.14461       749.84587     -563.18308    
    100800   304.1363      -2130.0396     -1739.3069      1187.5871     -1620.8401      18.982429      18.982429      18.982429      1892.0116      1993.9732     -323.22357    
    100900   295.30833     -2135.4033     -1756.0121      178.18611     -1738.1846      19.001171      19.001171      19.001171     -933.16845      1717.6998     -249.97304    
    101000   299.37484     -2148.4403     -1763.8247      220.48127     -1741.699       19.020263      19.020263      19.020263     -586.51829      600.23167      647.73043    
Loop time of 1367.1 on 1 procs for 100000 steps with 648 atoms

Performance: 6.320 ns/day, 3.797 hours/ns, 73.148 timesteps/s
79.2% CPU use with 1 MPI tasks x 1 OpenMP threads

MPI task timing breakdown:
Section |  min time  |  avg time  |  max time  |%varavg| %total
---------------------------------------------------------------
Pair    | 648.08     | 648.08     | 648.08     |   0.0 | 47.41
Bond    | 0.26238    | 0.26238    | 0.26238    |   0.0 |  0.02
Kspace  | 182.6      | 182.6      | 182.6      |   0.0 | 13.36
Neigh   | 12.475     | 12.475     | 12.475     |   0.0 |  0.91
Comm    | 6.9881     | 6.9881     | 6.9881     |   0.0 |  0.51
Output  | 0.27488    | 0.27488    | 0.27488    |   0.0 |  0.02
Modify  | 512.48     | 512.48     | 512.48     |   0.0 | 37.49
Other   |            | 3.935      |            |       |  0.29

Nlocal:            648 ave         648 max         648 min
Histogram: 1 0 0 0 0 0 0 0 0 0
Nghost:           6819 ave        6819 max        6819 min
Histogram: 1 0 0 0 0 0 0 0 0 0
Neighs:         220654 ave      220654 max      220654 min
Histogram: 1 0 0 0 0 0 0 0 0 0

Total # of neighbors = 220654
Ave neighs/atom = 340.51543
Ave special neighs/atom = 2
Neighbor list builds = 1346
Dangerous builds = 0

write_data  water2.data
System init for write_data ...
PPPM initialization ...
  using 12-bit tables for long-range coulomb (src/kspace.cpp:342)
  G vector (1/distance) = 0.30254974
  grid = 16 16 16
  stencil order = 5
  estimated absolute RMS force accuracy = 0.0032418501
  estimated relative force accuracy = 9.7627351e-06
  using double precision FFTW3
  3d grid and FFT values/proc = 12167 4096
Generated 0 of 1 mixed pair_coeff terms from geometric mixing rule
WARNING: Not all mixed pair coeffs generated from mixing. Use write_data with 'pair ij' option to store all pair coeffs. (src/write_data.cpp:309)
write_restart     water2.restart
System init for write_restart ...
PPPM initialization ...
  using 12-bit tables for long-range coulomb (src/kspace.cpp:342)
  G vector (1/distance) = 0.30254974
  grid = 16 16 16
  stencil order = 5
  estimated absolute RMS force accuracy = 0.0032418501
  estimated relative force accuracy = 9.7627351e-06
  using double precision FFTW3
  3d grid and FFT values/proc = 12167 4096
Generated 0 of 1 mixed pair_coeff terms from geometric mixing rule
Total wall time: 0:22:47
