LAMMPS (4 May 2022)
OMP_NUM_THREADS environment is not set. Defaulting to 1 thread. (src/comm.cpp:98)
  using 1 OpenMP thread(s) per MPI task
# spc water - 1=O, 2=H

read_restart    water1.restart
Reading restart file ...
  restart file = 4 May 2022, LAMMPS = 4 May 2022
  restoring atom style full from restart
  orthogonal box = (0.15416888 0.15416888 0.15416888) to (6.0458311 6.0458311 6.0458311)
  1 by 1 by 1 MPI processor grid
  restoring pair style lj/cut/coul/long from restart
  restoring bond style harmonic from restart
  restoring angle style harmonic from restart
  24 atoms
  16 bonds
  8 angles
Finding 1-2 1-3 1-4 neighbors ...
  special bond factors lj:    0        0        0       
  special bond factors coul:  0        0        0       
     2 = max # of 1-2 neighbors
     1 = max # of 1-3 neighbors
     1 = max # of 1-4 neighbors
     2 = max # of special neighbors
  special bonds CPU = 0.000 seconds
  read_restart CPU = 0.004 seconds

kspace_style   pppm 1.0e-5

group oxygen type 1
8 atoms in group oxygen

#======================
neighbor        2.0 bin
neigh_modify    every 1 delay 1 check yes
#======================

#reset_timestep 0
timestep 1.0

fix            1 all shake 0.0001 20 0 b 1 a 1
       0 = # of size 2 clusters
       0 = # of size 3 clusters
       0 = # of size 4 clusters
       8 = # of frozen angles
  find clusters CPU = 0.000 seconds
fix            2 all npt temp 300.0 300.0 100.0 iso 1.0 1.0 1000.0
Resetting global fix info from restart file:
  fix style: npt, fix ID: 2
fix            3 all momentum 1 linear 1 1 1
fix	       xwall1 all wall/lj93 xlo EDGE 1.0 1.0 2.5 pbc yes
fix	       xwall2 all wall/lj93 xhi EDGE 1.0 1.0 2.5 pbc yes
fix	       ywall1 all wall/lj93 ylo EDGE 1.0 1.0 2.5 pbc yes
fix	       ywall2 all wall/lj93 yhi EDGE 1.0 1.0 2.5 pbc yes
fix	       zwall1 all wall/lj93 zlo EDGE 1.0 1.0 2.5 pbc yes
fix	       zwall2 all wall/lj93 zhi EDGE 1.0 1.0 2.5 pbc yes

compute	MSD oxygen msd com no
fix 4 oxygen ave/time 1 1 500 c_MSD[4] file ../spc2.msd

thermo 100
thermo_style custom step temp pe etotal press enthalpy lx ly lz pxx pyy pzz
thermo_modify flush yes


dump         2 all custom 1000 md2.lammpstrj id type x y z
#dump_modify  1 unwrap yes
run 100000
PPPM initialization ...
  using 12-bit tables for long-range coulomb (src/kspace.cpp:342)
  G vector (1/distance) = 0.31639112
  grid = 6 6 6
  stencil order = 5
  estimated absolute RMS force accuracy = 0.0015363847
  estimated relative force accuracy = 4.6267768e-06
  using double precision FFTW3
  3d grid and FFT values/proc = 2197 216
Generated 0 of 1 mixed pair_coeff terms from geometric mixing rule
All restart file global fix info was re-assigned
Neighbor list info ...
  update every 1 steps, delay 1 steps, check yes
  max neighbors/atom: 2000, page size: 100000
  master list distance cutoff = 12
  ghost atom cutoff = 12
  binsize = 6, bins = 1 1 1
  1 neighbor lists, perpetual/occasional/extra = 1 0 0
  (1) pair lj/cut/coul/long, perpetual
      attributes: half, newton on
      pair build: half/bin/newton
      stencil: half/bin/3d
      bin: standard
Per MPI rank memory allocation (min/avg/max) = 9.612 | 9.612 | 9.612 Mbytes
   Step          Temp          PotEng         TotEng         Press         Enthalpy          Lx             Ly             Lz            Pxx            Pyy            Pzz      
      1000   387.95007     -77.570239     -60.224157     -28710.245     -145.85423      5.8916622      5.8916622      5.8916622     -17079.502     -41446.255     -27604.978    
      1100   505.32446     -56.134121     -33.539978      15494.436      13.063976      5.9082251      5.9082251      5.9082251     -2822.8508      36339.959      12966.199    
      1200   367.10836     -66.21813      -49.803926      607.29868     -47.836578      6.0562103      6.0562103      6.0562103      9347.2783     -16162.471      8637.0891    
      1300   266.6036      -71.39343      -59.47301      -4980.0609     -76.674757      6.1871029      6.1871029      6.1871029     -8838.0435     -4362.2906     -1739.8485    
      1400   227.27632     -67.494701     -57.332688     -5639.1395     -77.605711      6.2701308      6.2701308      6.2701308     -12288.209     -4646.2349      17.025333    
      1500   247.90158     -70.86179      -59.777577      2317.0204     -51.485199      6.2607224      6.2607224      6.2607224     -9103.4865      7298.1073      8756.4405    
      1600   360.18397     -67.51129      -51.40669      -7101.8871     -76.57517       6.2402565      6.2402565      6.2402565     -24209.18      -8594.599       11498.118    
      1700   377.64621     -69.407365     -52.52199      -6883.7333     -76.061073      6.1663741      6.1663741      6.1663741     -25699.416     -1182.0174      6230.2335    
      1800   351.52021     -73.404728     -57.687503     -816.31035     -60.35324       6.072423       6.072423       6.072423      -6952.327      -3727.8663      8231.2623    
      1900   305.01398     -75.244537     -61.606706     -2394.6076     -69.055331      5.9747804      5.9747804      5.9747804     -12574.933      10129.435     -4738.3242    
      2000   222.19475     -75.161255     -65.22645      -2017.2201     -71.205184      5.8793142      5.8793142      5.8793142     -30203.247      19763.21       4388.377     
      2100   295.67707     -79.043706     -65.823348      6405.5043     -47.643937      5.7949568      5.7949568      5.7949568     -9001.9367      16874.822      11343.628    
      2200   288.52197     -77.388433     -64.487995      2886.7392     -56.354995      5.7808156      5.7808156      5.7808156     -16352.915      21244.749      3768.3837    
      2300   336.44877     -79.972343     -64.928995     -2185.5156     -71.248635      5.8311497      5.8311497      5.8311497     -8450.9503      7936.021      -6041.6173    
      2400   253.99375     -73.287141     -61.930534     -162.07387     -62.415333      5.8973588      5.8973588      5.8973588     -14303.692      4113.926       9703.544     
      2500   355.32937     -73.604305     -57.716765     -1416.4211     -62.093912      5.9617573      5.9617573      5.9617573     -7413.2145      8438.7136     -5274.7623    
      2600   336.16834     -73.634445     -58.603635     -62.091232     -58.799776      6.0055599      6.0055599      6.0055599     -7945.8         1212.8708      6546.6555    
      2700   265.89555     -74.875872     -62.98711      -3717.2914     -74.9328        6.0399903      6.0399903      6.0399903     -15364.804     -624.1287       4837.0584    
      2800   240.00798     -76.950166     -66.218893     -9502.2101     -96.408073      6.0170497      6.0170497      6.0170497     -20360.377     -15522.572      7376.3192    
      2900   334.66608     -81.842237     -66.878596     -7134.8844     -88.239576      5.8991048      5.8991048      5.8991048     -22275.772     -9297.752       10168.87     
      3000   306.56702     -78.607999     -64.900728      2647.4911     -57.604292      5.738523       5.738523       5.738523      -17085.253      2065.8895      22961.837    
      3100   379.91384     -79.615628     -62.628863      7024.5081     -44.433628      5.6211083      5.6211083      5.6211083     -2310.882       2784.7749      20599.631    
      3200   318.05561     -73.715183     -59.494233      23995.577      2.8768153      5.6276272      5.6276272      5.6276272      16687.725      22491.986      32807.02     
      3300   285.02559     -80.59208      -67.847973      2616.2614     -60.367106      5.8094047      5.8094047      5.8094047     -15916.121     -542.96823      24307.873    
      3400   332.02008     -80.769596     -65.924265     -8264.0958     -91.693724      5.9796811      5.9796811      5.9796811     -17176.973     -12221.885      4606.5704    
      3500   251.50509     -76.808438     -65.563105     -6673.7412     -86.960984      6.0354338      6.0354338      6.0354338     -17536.951     -4242.9951      1758.7221    
      3600   287.43353     -76.76835      -63.916579     -1104.4253     -67.376905      5.9891923      5.9891923      5.9891923     -12918.396      1307.2334      8297.8864    
      3700   242.975       -73.1725       -62.308565     -3673.5083     -73.367676      5.910004       5.910004       5.910004      -24843.446      4509.0078      9313.9129    
      3800   279.06644     -78.878637     -66.400977      8139.1545     -43.096967      5.811994       5.811994       5.811994       8392.8622     -1484.4186      17509.02     
      3900   345.78765     -78.946062     -63.485153      10320.405     -34.4964        5.7750042      5.7750042      5.7750042      1302.1626      4215.9365      25443.115    
      4000   338.34662     -79.441627     -64.313422      3209.2806     -55.056023      5.8264203      5.8264203      5.8264203      7259.5265     -13307.015      15675.33     
      4100   298.10994     -77.448211     -64.119075     -5049.2387     -79.248838      5.9007894      5.9007894      5.9007894     -15126.609     -8178.7089      8157.6023    
      4200   331.58526     -77.1418       -62.31591      -1314.5365     -66.313669      5.9300185      5.9300185      5.9300185     -10368.712     -2362.1528      8787.2556    
      4300   245.08757     -79.181205     -68.222812      497.61046     -66.707899      5.9320863      5.9320863      5.9320863     -2897.2185     -1838.6656      6228.7155    
      4400   303.29634     -81.98436      -68.423329     -6767.5215     -88.638738      5.8946633      5.8946633      5.8946633     -21517.172     -8874.8673      10089.475    
      4500   219.01291     -83.579447     -73.786909     -1204.0326     -77.254952      5.823581       5.823581       5.823581      -18056.418     -2835.8611      17280.181    
      4600   207.31301     -82.203128     -72.933718      5982.3611     -56.26175       5.7598713      5.7598713      5.7598713     -6626.3137      11543.806      13029.591    
      4700   195.21843     -77.379411     -68.650775      4213.1964     -57.106099      5.7274949      5.7274949      5.7274949      3034.2604      1037.0815      8568.2473    
      4800   343.51854     -78.653054     -63.293602      5214.6954     -48.945604      5.7353794      5.7353794      5.7353794     -12878.648      19072.345      9450.3897    
      4900   275.70608     -76.667649     -64.340237      967.01287     -61.570424      5.8127389      5.8127389      5.8127389     -19677.399      8577.4929      14000.945    
      5000   338.7572      -75.301653     -60.15509       2743.8169     -51.800886      5.9323215      5.9323215      5.9323215     -5874.9811     -6517.9981      20624.43     
      5100   358.44967     -71.579659     -55.552603     -2189.6095     -62.688906      6.0684378      6.0684378      6.0684378     -16976.721      9790.47        617.42303    
      5200   334.52947     -76.220032     -61.262499     -12621.681     -104.64368      6.1768839      6.1768839      6.1768839     -31251.237     -5547.0133     -1066.7915    
      5300   255.99973     -75.786928     -64.34063      -7666.8645     -90.589629      6.1688806      6.1688806      6.1688806     -15133.754     -14013.475      6146.6355    
      5400   213.77986     -72.378089     -62.819532     -5393.8549     -80.227031      6.0485844      6.0485844      6.0485844     -17738.811      3873.5454     -2316.2992    
      5500   321.28919     -76.345146     -61.979615      4361.0738     -49.041968      5.8811464      5.8811464      5.8811464     -11538.965      9561.7404      15060.446    
      5600   401.55296     -74.685511     -56.731214      17805.174     -6.4943181      5.7836264      5.7836264      5.7836264      11300.432      18916.828      23198.262    
      5700   231.90848     -79.076042     -68.706915      5991.6292     -51.564295      5.8105707      5.8105707      5.8105707     -4146.3767      6318.747       15802.517    
      5800   256.30495     -76.839823     -65.379877      5108.7162     -50.245036      5.8784577      5.8784577      5.8784577      2792.8888      1952.4718      10580.788    
      5900   353.55078     -77.762945     -61.954929     -147.42472     -62.408934      5.9548574      5.9548574      5.9548574      1138.9659     -6737.9369      5156.6969    
      6000   369.18104     -76.673686     -60.166808     -6004.0945     -79.371341      6.0305943      6.0305943      6.0305943     -21883.173     -316.57448      4187.4645    
      6100   286.19666     -75.145097     -62.348628     -2656.5707     -71.042307      6.0767136      6.0767136      6.0767136     -17784.042     -1118.5666      10932.897    
      6200   169.39627     -79.393121     -71.81905      -4157.6701     -85.348765      6.0653274      6.0653274      6.0653274     -20571.596      1429.326       6669.2598    
      6300   200.06118     -81.84075      -72.895585     -4899.0454     -88.063831      5.9655342      5.9655342      5.9655342     -16745.568      60.899752      1987.5323    
      6400   263.48639     -81.134433     -69.35339       6730.5314     -50.090326      5.8112119      5.8112119      5.8112119     -16971.128      23158.029      14004.693    
      6500   322.62428     -81.683501     -67.258276      8514.4501     -44.025125      5.7195063      5.7195063      5.7195063      1015.4428      12256.49       12271.417    
      6600   439.9038      -83.362758     -63.693713      4361.9378     -51.846708      5.710635       5.710635       5.710635      -24684.049      11274.667      26495.195    
      6700   224.52779     -76.046984     -66.007863      11292.908     -34.508119      5.7615825      5.7615825      5.7615825      1519.0284      9092.7773      23266.918    
      6800   201.40781     -77.11271      -68.107333      3340.2538     -58.236909      5.8734529      5.8734529      5.8734529     -9726.3678      13965.142      5781.9869    
      6900   461.96813     -78.188953     -57.533364     -5917.1322     -76.201564      6.0030473      6.0030473      6.0030473     -22461.49      -8801.3007      13511.394    
      7000   398.41991     -71.898235     -54.084024     -8701.4071     -82.579465      6.0781302      6.0781302      6.0781302     -24513.736     -7562.3246      5971.8391    
      7100   399.85714     -73.421133     -55.54266      -8383.2363     -82.833262      6.0660852      6.0660852      6.0660852     -30054.761     -2164.5132      7069.5657    
      7200   264.30742     -72.780135     -60.962382     -7496.7928     -84.547432      5.9973833      5.9973833      5.9973833     -20836.888      100.61765     -1754.1084    
      7300   323.30439     -76.283383     -61.827748      1705.1153     -56.801601      5.8686091      5.8686091      5.8686091     -14412.608      11994.858      7533.0965    
      7400   308.57946     -77.627832     -63.830581      6089.7172     -46.916424      5.7534161      5.7534161      5.7534161     -6793.6582      18072.423      6990.3865    
      7500   311.36618     -79.76625      -65.844398      6415.8767     -48.516202      5.6999864      5.6999864      5.6999864     -5405.7259      4751.6379      19901.718    
      7600   259.75145     -79.922296     -68.30825       7716.9449     -47.151071      5.7285603      5.7285603      5.7285603     -4491.3415      6000.0578      21642.119    
      7700   203.37221     -78.633034     -69.539825     -5055.9073     -84.107623      5.8242451      5.8242451      5.8242451     -10580         -12027.875      7440.1533    
      7800   332.59862     -78.060719     -63.189519     -4925.3874     -77.708791      5.8687127      5.8687127      5.8687127     -13624.876      2486.953      -3638.239     
      7900   311.42242     -76.060054     -62.135688      106.93981     -61.820195      5.8702696      5.8702696      5.8702696     -17893.914      2602.0837      15612.65     
      8000   242.2479      -74.887614     -64.056189      2522.7777     -56.567647      5.8823041      5.8823041      5.8823041      8547.5679     -10832.283      9853.0483    
      8100   306.6062      -79.524273     -65.815251     -3689.999      -76.746081      5.878281       5.878281       5.878281      -14093.918      106.02451      2917.896     
      8200   353.50289     -79.044069     -63.238194      4723.7365     -49.488156      5.8440525      5.8440525      5.8440525     -6327.6718      16396.634      4102.2472    
      8300   465.63048     -80.637534     -59.818194     -1974.3516     -65.518448      5.8281575      5.8281575      5.8281575     -12572.616     -3099.8464      9749.4079    
      8400   321.10163     -78.782762     -64.425617      4778.0806     -50.719457      5.8156128      5.8156128      5.8156128      9605.5401     -2159.4356      6888.1374    
      8500   214.0024      -77.971511     -68.403003      2162.472      -62.135023      5.8358002      5.8358002      5.8358002     -659.21489     -5294.1745      12440.805    
      8600   318.14073     -81.416496     -67.191739     -182.23014     -67.723915      5.8504102      5.8504102      5.8504102     -11520.22       6287.2391      4686.2905    
      8700   308.74229     -78.231736     -64.427204     -1333.6116     -68.351753      5.865362       5.865362       5.865362      -1781.531      -4387.2633      2167.9594    
      8800   359.93611     -76.774616     -60.681099     -2696.1486     -68.63534       5.8702916      5.8702916      5.8702916     -13610.239      1021.2216      4500.5715    
      8900   287.32878     -75.793915     -62.946827     -600.15298     -64.728649      5.8826836      5.8826836      5.8826836     -4060.8229     -641.67565      2902.0396    
      9000   300.32775     -76.056575     -62.628276     -1909.7911     -68.331434      5.8941053      5.8941053      5.8941053     -4908.9835     -7887.0556      7066.6658    
      9100   288.03144     -73.574697     -60.696191     -1684.9718     -65.735302      5.8969638      5.8969638      5.8969638     -6189.708      -1521.4771      2656.2695    
      9200   378.72834     -74.743615     -57.809856     -2854.6523     -66.275028      5.880337       5.880337       5.880337      -6073.9956     -6773.2956      4283.3343    
      9300   289.59225     -78.628364     -65.680072      1467.701      -61.455063      5.8224359      5.8224359      5.8224359      9832.6505     -10328.202      4898.655     
      9400   296.34454     -83.354927     -70.104725     -4176.9805     -81.653511      5.744682       5.744682       5.744682      -17672.659      486.99394      4654.7235    
      9500   271.73718     -86.518293     -74.36834       3110.6319     -66.238462      5.6379321      5.6379321      5.6379321     -4886.2025      4516.802       9701.2962    
      9600   270.13415     -88.379924     -76.301645      7718.4924     -56.893266      5.565792       5.565792       5.565792       10343.756      4693.2122      8118.5085    
      9700   348.91466     -86.683454     -71.08273       9923.7921     -45.937971      5.5799629      5.5799629      5.5799629      3929.0592      10583.242      15259.076    
      9800   328.3144      -83.728419     -69.048776      2306.09       -62.847714      5.6916472      5.6916472      5.6916472      7241.0998     -5324.6756      5001.8457    
      9900   338.31008     -82.663649     -67.537078     -6952.2417     -87.611214      5.8283466      5.8283466      5.8283466     -14132.774     -10834.642      4110.6911    
     10000   325.8762      -80.393796     -65.82317      -10268.405     -96.506733      5.8953416      5.8953416      5.8953416     -19386.617     -15804.107      4385.5098    
     10100   284.81488     -81.563307     -68.828621     -4454.0876     -81.9377        5.865601       5.865601       5.865601       1979.6748     -10954.116     -4387.822     
     10200   267.58386     -79.826634     -67.862384     -4461.6084     -80.335837      5.7659799      5.7659799      5.7659799     -853.74164     -15405.757      2874.6738    
     10300   414.56685     -79.817386     -61.28121       12965.252     -27.58874       5.6271955      5.6271955      5.6271955      2196.4901      26987.859      9711.4068    
     10400   388.5139      -80.3269       -62.955608      12835.014     -30.148525      5.5962674      5.5962674      5.5962674      18825.731      6869.6057      12809.706    
     10500   290.27578     -83.97396      -70.995106      1394.8675     -67.263534      5.6819096      5.6819096      5.6819096      5171.6966     -5727.6674      4740.5731    
     10600   294.77233     -83.218525     -70.03862      -2294.0962     -76.527893      5.7885464      5.7885464      5.7885464     -4763.1444     -10719.394      8600.2502    
     10700   293.31477     -83.142941     -70.028206     -7827.3149     -93.086161      5.8673775      5.8673775      5.8673775     -2820.4336     -19449.464     -1212.0475    
     10800   366.01745     -80.147423     -63.781996     -3360.826      -73.797499      5.8900224      5.8900224      5.8900224     -2468.494      -9760.9638      2146.98      
     10900   336.30103     -79.718419     -64.681677     -2156.6042     -70.969691      5.8473049      5.8473049      5.8473049     -6066.1654     -6856.4307      6452.7837    
     11000   279.94784     -76.887048     -64.369978      7493.3415     -43.263209      5.7803853      5.7803853      5.7803853      1866.4574      10615.249      9998.318     
     11100   337.96467     -83.776473     -68.665346      2989.1489     -60.468937      5.7288404      5.7288404      5.7288404     -5772.4585      2188.2325      12551.673    
     11200   316.75902     -84.682528     -70.519551      207.27209     -69.96253       5.6905152      5.6905152      5.6905152     -93.708027     -175.15105      890.67535    
     11300   296.54364     -84.821406     -71.562302      3380.8973     -62.573596      5.6701747      5.6701747      5.6701747     -3182.0455      4115.7296      9209.0079    
     11400   257.03236     -85.571535     -74.079065     -1529.2984     -78.188265      5.6902286      5.6902286      5.6902286     -8948.2679      969.7156       3390.657     
     11500   215.37567     -85.132828     -75.502918     -2040.4845     -81.105253      5.7313017      5.7313017      5.7313017     -6331.2979     -2561.6913      2771.5358    
     11600   275.44661     -81.461048     -69.145238      1346.4947     -65.403828      5.7541994      5.7541994      5.7541994     -1015.2446      3133.6737      1921.0551    
     11700   324.22778     -81.367138     -66.870217     -3680.0549     -77.114301      5.7576815      5.7576815      5.7576815     -11247.985     -3181.9811      3389.801     
     11800   395.5239      -84.646163     -66.961439      781.89166     -64.811368      5.7342518      5.7342518      5.7342518     -11713.357      1233.6902      12825.342    
     11900   280.77745     -84.429504     -71.875341     -365.25651     -72.863218      5.7026463      5.7026463      5.7026463     -5061.1713      126.85732      3838.5445    
     12000   308.71488     -86.37184      -72.568534     -2140.3134     -78.273849      5.6751255      5.6751255      5.6751255     -8453.8943     -2396.3992      4429.3534    
     12100   268.85101     -83.604133     -71.583226      5084.0345     -58.190068      5.6528336      5.6528336      5.6528336      4542.9485      7387.4642      3321.6908    
     12200   422.89344     -82.084748     -63.176273      1899.5143     -58.067048      5.6921833      5.6921833      5.6921833     -5240.6827     -4689.7221      15628.948    
     12300   378.72234     -80.701131     -63.76764      -3795.7005     -74.51617       5.7906467      5.7906467      5.7906467     -12930.353     -10745.422      12288.673    
     12400   261.85325     -77.998495     -66.290473     -9286.1909     -94.210155      5.9074355      5.9074355      5.9074355     -20047.596     -11025.661      3214.6848    
     12500   347.4558      -77.802824     -62.267327     -6882.6333     -83.624155      5.9699232      5.9699232      5.9699232     -23749         -1778.8406      4879.9407    
     12600   263.57037     -74.760064     -62.975266     -6062.1838     -81.760812      5.9672322      5.9672322      5.9672322     -10975.321     -9457.2392      2246.0091    
     12700   311.46106     -78.710664     -64.78457      -6350.6993     -83.74122       5.893248       5.893248       5.893248      -7370.9763     -13592.743      1911.6216    
     12800   218.40922     -83.111064     -73.345518     -497.14474     -74.715159      5.7378522      5.7378522      5.7378522     -2462.2442     -5521.6575      6492.4675    
     12900   284.98693     -85.017683     -72.275304      11805.554     -42.396815      5.5778323      5.5778323      5.5778323      21907.83       4667.1156      8841.7166    
     13000   298.93266     -82.390488     -69.024566      23043.711     -12.018739      5.5355866      5.5355866      5.5355866      29367.949      28673.811      11089.374    
     13100   403.36203     -83.727385     -65.692201      3855.0581     -55.437069      5.6712416      5.6712416      5.6712416      4798.4679      6102.5226      664.18365    
     13200   383.70626     -82.499267     -65.342935     -7620.3773     -87.644831      5.8545898      5.8545898      5.8545898     -13455.645     -14148.927      4743.4398    
     13300   243.73827     -78.241619     -67.343557     -9886.6417     -98.070962      5.9731085      5.9731085      5.9731085     -12559.357     -19110.453      2009.8842    
     13400   202.67454     -77.630167     -68.568152     -7184.7601     -90.75335       5.9601663      5.9601663      5.9601663     -17643.996     -4041.4792      131.19451    
     13500   289.60238     -78.049514     -65.100769     -3405.5675     -75.027764      5.8467898      5.8467898      5.8467898     -7129.6313     -729.81958     -2357.2516    
     13600   328.13162     -75.995401     -61.32393       4987.8458     -47.618769      5.7327774      5.7327774      5.7327774     -1828.3248      8478.3452      8313.5169    
     13700   442.17121     -83.561089     -63.790663      3602.3259     -54.148553      5.6829137      5.6829137      5.6829137     -278.30941      5391.2166      5694.0706    
     13800   330.76421     -82.178094     -67.388914      5766.549      -51.927745      5.6861304      5.6861304      5.6861304      11021.479     -3042.7628      9320.9309    
     13900   308.13529     -85.558968     -71.781577     -4923.2001     -85.309838      5.7328802      5.7328802      5.7328802     -4665.2861     -14308.593      4204.2791    
     14000   230.96631     -85.751535     -75.424535     -2019.5769     -81.044325      5.7569783      5.7569783      5.7569783     -1695.2497     -8867.304       4503.8229    
     14100   167.90342     -80.515993     -73.00867       2196.1631     -66.910915      5.7527632      5.7527632      5.7527632     -2120.3753      2865.0741      5843.7905    
     14200   354.2814      -83.107538     -67.266855     -2246.4929     -73.422912      5.7276161      5.7276161      5.7276161      1030.2944     -11112.077      3342.3033    
     14300   324.44966     -78.575779     -64.068936      2790.9632     -56.516981      5.7035222      5.7035222      5.7035222      10477.645     -10915.728      8810.973     
     14400   336.94041     -82.713467     -67.648136      395.89481     -66.558757      5.7355426      5.7355426      5.7355426      5868.5566     -8768.7091      4087.8369    
     14500   264.32907     -84.743203     -72.924482     -1453.7214     -77.023501      5.7823936      5.7823936      5.7823936     -2137.8995      1366.5064     -3589.7711    
     14600   251.90115     -85.310649     -74.047607     -6193.5866     -91.52536       5.7839229      5.7839229      5.7839229     -18938.036     -6420.8284      6778.1043    
     14700   248.24156     -86.110642     -75.011227     -2629.0332     -82.231412      5.7318143      5.7318143      5.7318143     -1070.7986     -12369.527      5553.226     
     14800   274.98648     -87.251654     -74.956416      3325.2451     -66.192767      5.6536443      5.6536443      5.6536443     -507.77357      378.41014      10105.099    
     14900   182.38311     -81.022002     -72.867261      9793.3593     -47.702602      5.606104       5.606104       5.606104      -63.037563      9809.7321      19633.384    
     15000   400.34533     -86.128352     -68.228051      8348.9461     -46.536603      5.6267851      5.6267851      5.6267851      11401.708     -600.26597      14245.396    
     15100   289.56891     -83.2523       -70.305051      1155.149      -67.162565      5.7137316      5.7137316      5.7137316     -6466.3076      2403.2914      7528.4632    
     15200   277.81161     -82.105814     -69.684259     -2405.8222     -76.607107      5.8216817      5.8216817      5.8216817     -19200.668      13154.407     -1171.2061    
     15300   201.44358     -79.466528     -70.459552     -8386.4199     -95.555585      5.8981733      5.8981733      5.8981733     -17226.548     -10238.843      2306.1316    
     15400   210.07392     -80.729409     -71.336553     -8062.2857     -95.428202      5.8953666      5.8953666      5.8953666     -20667.534     -4222.5734      703.24971    
     15500   361.42863     -82.876371     -66.71612      -7052.4788     -86.866612      5.8079472      5.8079472      5.8079472     -16090.456     -4865.8875     -201.0927     
     15600   328.50928     -79.269502     -64.581146      8204.0686     -42.67133       5.6786423      5.6786423      5.6786423      1890.4228      10260.376      12461.407    
     15700   334.54448     -81.383037     -66.424834      10131.301     -39.978943      5.6355853      5.6355853      5.6355853      17787.771      10518.556      2087.5768    
     15800   343.35495     -85.391475     -70.039337      1611.4655     -65.682878      5.7018033      5.7018033      5.7018033     -4035.0812      3647.858       5221.6199    
     15900   234.9893      -85.053324     -74.546447     -3207.8201     -83.60858       5.7860411      5.7860411      5.7860411     -6120.2712     -7082.5864      3579.3974    
     16000   275.27747     -84.88546      -72.577213     -9532.0536     -100.0575       5.8253182      5.8253182      5.8253182     -23875.516     -14503.909      9783.2644    
     16100   194.92245     -81.009262     -72.29386      -5647.8018     -88.255841      5.7868712      5.7868712      5.7868712     -11052.056     -7898.4201      2007.0709    
     16200   243.18529     -80.82711      -69.953772      9802.1018     -43.529542      5.6964255      5.6964255      5.6964255     -1109.1493      12476.877      18038.578    
     16300   274.8971      -84.690599     -72.399358      3533.8407     -63.17254       5.6360699      5.6360699      5.6360699      8029.6612     -9807.94        12379.801    
     16400   347.91098     -86.572189     -71.016341      6902.0837     -53.140772      5.6208404      5.6208404      5.6208404      13094.435     -927.10721      8538.9236    
     16500   322.24634     -85.077791     -70.669464      4148.3309     -59.66766       5.6654995      5.6654995      5.6654995      689.58812     -1803.831       13559.235    
     16600   240.54503     -85.918709     -75.163423     -4228.5022     -86.859047      5.7454006      5.7454006      5.7454006     -10153.776     -6560.5498      4028.8192    
     16700   226.02148     -82.475792     -72.369886     -2478.5604     -79.385385      5.7897667      5.7897667      5.7897667     -2160.2941     -6848.7999      1573.4128    
     16800   274.75779     -77.805877     -65.520865      369.20649     -64.476885      5.7878294      5.7878294      5.7878294     -676.57065     -8341.7517      10125.942    
     16900   347.80582     -81.754107     -66.202961      1630.2614     -61.62703       5.7736275      5.7736275      5.7736275      562.01092     -2376.7715      6705.5447    
     17000   315.75327     -83.223822     -69.105814     -4676.8661     -82.042128      5.7454834      5.7454834      5.7454834     -4511.9814     -10689.82       1171.2034    
     17100   231.82909     -84.542232     -74.176655     -1386.5233     -77.930688      5.7046855      5.7046855      5.7046855     -7633.1658     -9959.7046      13433.301    
     17200   228.02266     -84.763901     -74.568517      5531.6087     -59.861382      5.6702245      5.6702245      5.6702245      15181.388     -7699.5657      9113.0035    
     17300   252.98293     -86.686656     -75.375246      6064.7402     -59.312224      5.6629977      5.6629977      5.6629977      1697.2345      12723.701      3773.2849    
     17400   343.72951     -85.774613     -70.405727      2399.7338     -63.953169      5.6915555      5.6915555      5.6915555     -6408.2327      4252.1006      9355.3337    
     17500   305.81616     -84.218871     -70.545173     -3382.6921     -79.8839        5.7418228      5.7418228      5.7418228     -7458.2776     -7764.6308      5074.8322    
     17600   237.64522     -80.999659     -70.37403      -3762.8157     -80.940869      5.7745581      5.7745581      5.7745581      8851.2948     -15250.391     -4889.3509    
     17700   231.64391     -76.096168     -65.73887       6237.7917     -48.032544      5.795273       5.795273       5.795273       11137.902     -2945.5689      10521.042    
     17800   315.92555     -76.155477     -62.029766      2168.1538     -55.750233      5.8342782      5.8342782      5.8342782     -1253.5482      1996.6977      5761.3119    
     17900   350.719       -78.184627     -62.503227     -6120.1861     -80.51355       5.8653464      5.8653464      5.8653464      626.99544     -15415.164     -3572.3896    
     18000   291.37753     -79.000983     -65.972867     -2873.39       -74.399576      5.858627       5.858627       5.858627      -4092.3502     -9276.5093      4748.6896    
     18100   298.0053      -81.717159     -68.392701     -3830.3484     -79.38931       5.8172118      5.8172118      5.8172118      10705.643     -32624.114      10427.425    
     18200   244.46618     -81.817921     -70.887312      3165.1616     -62.097363      5.7531389      5.7531389      5.7531389      15815.566     -8899.507       2579.4253    
     18300   310.3042      -81.361324     -67.486956      1023.484      -64.730724      5.6944648      5.6944648      5.6944648      4972.0758     -3256.3925      1354.7688    
     18400   329.82969     -74.157062     -59.409668      9370.1414     -34.574848      5.664301       5.664301       5.664301       8205.2276      9705.4708      10199.726    
     18500   470.79098     -82.283174     -61.233096     -2300.6584     -67.54906       5.7310896      5.7310896      5.7310896     -13346.942     -4303.8896      10748.856    
     18600   315.92707     -82.355966     -68.230187     -1370.924      -72.167972      5.8181859      5.8181859      5.8181859     -5035.6405     -5285.3488      6208.2172    
     18700   339.6343      -83.186246     -68.000466     -6302.3685     -86.658494      5.8770856      5.8770856      5.8770856     -7576.0543     -20075.923      8744.8714    
     18800   265.93435     -81.289337     -69.39884      -8516.9985     -94.689299      5.8829897      5.8829897      5.8829897     -6168.8432     -27312.166      7930.0137    
     18900   391.85725     -84.096715     -66.575935     -8592.0963     -91.23835       5.8168366      5.8168366      5.8168366     -17829.623     -7334.0646     -612.60116    
     19000   408.12427     -79.401219     -61.153105      4904.2578     -47.784139      5.7176321      5.7176321      5.7176321     -2525.4869      4650.0823      12588.178    
     19100   348.80177     -81.816076     -66.220399      882.27545     -63.86962       5.674277       5.674277       5.674277      -7564.6         4438.3         5773.1263    
     19200   309.24354     -85.315309     -71.488365     -614.41649     -73.141182      5.692399       5.692399       5.692399      -4037.4109     -5765.1947      7959.3561    
     19300   212.86321     -83.48696      -73.969388     -1771.885      -78.819031      5.725316       5.725316       5.725316      -4689.4148     -10251.421      9625.1808    
     19400   344.18155     -85.139346     -69.750249     -5020.7518     -83.660748      5.7486521      5.7486521      5.7486521     -5520.1854     -12344.178      2802.1075    
     19500   285.49955     -79.699417     -66.934118     -549.31527     -68.457801      5.7508548      5.7508548      5.7508548      4667.996      -8026.5636      1710.6218    
     19600   274.78915     -76.4742       -64.187786      913.36848     -61.637343      5.7636544      5.7636544      5.7636544     -9233.1166     -4783.0411      16756.263    
     19700   350.47299     -78.281706     -62.611305      5123.5525     -48.202957      5.777266       5.777266       5.777266       12090.928     -880.45465      4160.1837    
     19800   426.64923     -83.235292     -64.158887     -4057.428      -75.809505      5.8175583      5.8175583      5.8175583     -3829.4151     -11153.541      2810.6718    
     19900   277.60906     -79.625167     -67.212669     -7703.6295     -89.572267      5.8384501      5.8384501      5.8384501     -6193.4109     -13697.001     -3220.4763    
     20000   327.689       -84.853037     -70.201357     -7296.5363     -91.027554      5.8059387      5.8059387      5.8059387     -15205.774     -13167.149      6483.3139    
     20100   293.97022     -85.409258     -72.265217     -832.04435     -74.529137      5.7140797      5.7140797      5.7140797     -9232.2016      477.07346      6258.9951    
     20200   289.42476     -84.766706     -71.825903      10716.603     -44.363003      5.6010714      5.6010714      5.6010714      7259.2911      6549.4621      18341.057    
     20300   401.26386     -84.915937     -66.974567      10256.473     -41.193237      5.5651532      5.5651532      5.5651532      3688.204       8974.5361      18106.68     
     20400   309.26172     -82.11184      -68.284083      4865.2951     -55.565029      5.6384091      5.6384091      5.6384091      3326.845       6769.2032      4499.8371    
     20500   275.80855     -82.69821      -70.366216     -6732.7343     -89.338691      5.7812117      5.7812117      5.7812117     -13683.986     -13908.88       7394.6629    
     20600   255.86064     -84.229169     -72.789089     -6977.1625     -93.710653      5.9021893      5.9021893      5.9021893     -7097.5936     -16686.293      2852.3989    
     20700   190.36331     -80.870155     -72.358602     -10635.119     -104.70153      5.9299864      5.9299864      5.9299864     -10283.424     -17383.79      -4238.1431    
     20800   306.35953     -78.989625     -65.291631     -2314.4245     -72.001311      5.8361661      5.8361661      5.8361661     -19457.368     -414.95313      12929.048    
     20900   426.62636     -82.644732     -63.56935       1367.0279     -59.865921      5.7058049      5.7058049      5.7058049     -11334.839      2875.6555      12560.267    
     21000   291.57024     -83.146012     -70.109279      6545.3327     -53.221201      5.6138078      5.6138078      5.6138078      3437.8314      1545.1161      14653.051    
     21100   357.02653     -88.243323     -72.279899      9571.3571     -47.714506      5.6039137      5.6039137      5.6039137      5294.6054      21247.406      2172.06      
     21200   274.37845     -85.282063     -73.014012      3283.6079     -64.234763      5.6808074      5.6808074      5.6808074     -3917.0855     -1286.6259      15054.535    
     21300   221.08861     -83.956135     -74.070787     -6100.1567     -91.226685      5.7773967      5.7773967      5.7773967     -21333.249     -858.18189      3890.9607    
     21400   379.19593     -83.430844     -66.476179     -7634.5516     -88.326934      5.8112426      5.8112426      5.8112426     -18077.171     -8526.2082      3699.7241    
     21500   492.57292     -83.07596      -61.051966     -6429.7271     -79.281641      5.7929996      5.7929996      5.7929996     -19232.825     -10213.625      10157.269    
     21600   366.17131     -83.465742     -67.093435     -4179.5503     -78.732467      5.7584262      5.7584262      5.7584262     -9882.2767     -12394.422      9738.0481    
     21700   288.88086     -84.101145     -71.18466       428.73391     -70.023172      5.7058058      5.7058058      5.7058058     -3066.2116     -3097.6534      7450.0668    
     21800   318.62633     -85.064548     -70.818079      4184.7708     -59.733842      5.6630808      5.6630808      5.6630808      288.05306      5904.8847      6361.3746    
     21900   443.06837     -88.25257      -68.442031      1184.9279     -65.317122      5.6548773      5.6548773      5.6548773     -8785.122       4201.5235      8138.3822    
     22000   273.40449     -84.317561     -72.093059      4045.5933     -61.096993      5.712064       5.712064       5.712064      -1188.8294      5849.9735      7475.6359    
     22100   225.19974     -84.704904     -74.63574      -6216.0651     -92.065252      5.7716227      5.7716227      5.7716227     -13525.865     -10235.897      5113.5669    
     22200   260.52225     -82.322794     -70.674283     -3069.6609     -79.316318      5.7794065      5.7794065      5.7794065     -16296.661      3262.6082      3825.0697    
     22300   249.6658      -77.790824     -66.627729      1088.2698     -63.589439      5.7633137      5.7633137      5.7633137     -2043.5181      3775.8374      1532.4901    
     22400   440.43097     -85.141279     -65.448663     -4254.3022     -77.235811      5.7486805      5.7486805      5.7486805     -10714.708     -15684.557      13636.357    
     22500   334.23584     -86.090934     -71.14653      -4489.8185     -83.406902      5.7209258      5.7209258      5.7209258     -12673.709     -2711.4397      1915.6935    
     22600   232.26656     -83.829711     -73.444573      5121.9631     -59.802687      5.6735389      5.6735389      5.6735389      19784.907     -7147.816       2728.7985    
     22700   354.41696     -87.266167     -71.419423      1624.0972     -67.158518      5.6450958      5.6450958      5.6450958     -4977.3801     -2702.5785      12552.25     
     22800   220.07322     -79.02652      -69.186573      8799.0964     -45.977715      5.6551822      5.6551822      5.6551822     -6393.8045      20541.245      12249.849    
     22900   380.5499      -84.628013     -67.612808     -1400.0083     -71.489999      5.7478249      5.7478249      5.7478249     -18900.147      14331.104      369.01841    
     23000   377.62942     -83.180056     -66.295432     -10485.969     -97.138372      5.8644025      5.8644025      5.8644025     -10533.142     -25431.574      4506.8086    
     23100   245.85068     -80.775449     -69.782937     -4869.2344     -84.296884      5.8904661      5.8904661      5.8904661     -11247.384     -9101.6499      5741.3311    
     23200   264.0561      -80.693487     -68.886971     -3777.287      -79.864095      5.8408703      5.8408703      5.8408703     -5030.9454     -14296.81       7995.8942    
     23300   381.49418     -83.984393     -66.926967     -4136.8846     -78.508541      5.7686309      5.7686309      5.7686309     -11216.531     -8158.9088      6964.7864    
     23400   311.5967      -79.395735     -65.463577      7317.4039     -45.653532      5.704499       5.704499       5.704499       19123.772      2651.5974      176.84202    
     23500   377.29949     -81.586644     -64.716773      2436.9259     -58.186849      5.6849935      5.6849935      5.6849935     -11702.986      7768.1692      11245.594    
     23600   279.40951     -81.287591     -68.794591      1203.0413     -65.49862       5.7271996      5.7271996      5.7271996     -13718.464      3372.7762      13954.812    
     23700   359.60085     -82.334665     -66.256137     -5356.1903     -81.487535      5.798771       5.798771       5.798771      -8366.9316     -8197.3981      495.75879    
     23800   343.70703     -81.89001      -66.52213      -936.69982     -69.239297      5.8373181      5.8373181      5.8373181     -4631.0786     -4763.6078      6584.587     
     23900   278.24337     -86.041522     -73.600662     -7539.355      -95.412434      5.8321268      5.8321268      5.8321268     -10900.48      -18706.441      6988.8554    
     24000   222.92575     -84.93341      -74.96592      -4239.3814     -86.773616      5.7587594      5.7587594      5.7587594     -7742.3086     -7974.3302      2998.4948    
     24100   331.50763     -85.247273     -70.424854      3301.7862     -61.711425      5.6561564      5.6561564      5.6561564      6067.3097     -3036.902       6874.9509    
     24200   341.7371      -87.32337      -72.043569      6557.7046     -55.06912       5.6198231      5.6198231      5.6198231      10697.065     -713.22706      9689.2754    
     24300   311.8433      -86.01768      -72.074495      5724.2273     -56.96054       5.6571165      5.6571165      5.6571165     -1381.8946      9621.1242      8933.4523    
     24400   227.56987     -82.286018     -72.11088      -1477.1187     -76.181157      5.7382248      5.7382248      5.7382248     -9470.089      -4931.1         9969.8328    
     24500   275.60344     -81.410872     -69.08805       4140.8003     -57.304191      5.8001931      5.8001931      5.8001931      5942.8418      4480.764       1998.7951    
     24600   287.56135     -79.531445     -66.673959     -5164.6498     -81.804315      5.8565806      5.8565806      5.8565806     -8129.0528     -11018.499      3653.6024    
     24700   376.04535     -81.89606      -65.082263     -5674.4395     -81.724225      5.8587084      5.8587084      5.8587084     -6858.1523     -15092.992      4927.8261    
     24800   310.18867     -83.706147     -69.836944     -6521.4556     -88.627583      5.8242548      5.8242548      5.8242548     -13777.935     -6349.5341      563.10211    
     24900   274.62773     -82.290825     -70.011629     -2816.0505     -77.874542      5.7635365      5.7635365      5.7635365     -12623.758      3411.7776      763.82904    
     25000   347.91285     -84.707107     -69.151175      5409.4657     -54.46873       5.7093856      5.7093856      5.7093856      9018.3902     -385.8716       7595.8786    
     25100   264.05699     -85.164565     -73.358009      385.14743     -72.327594      5.6820239      5.6820239      5.6820239      1598.9159     -3938.8963      3495.4227    
     25200   331.28128     -85.412383     -70.600085      2393.2344     -64.23077       5.6721         5.6721         5.6721         9420.9697     -9008.9857      6767.7191    
     25300   178.60686     -79.74411      -71.758213      6475.0462     -54.371341      5.6889776      5.6889776      5.6889776      8507.3554      1980.6994      8937.0839    
     25400   307.73171     -83.576816     -69.81747       3521.2989     -60.113525      5.7383872      5.7383872      5.7383872     -2996.646       10079.958      3480.5847    
     25500   320.11428     -83.262218     -68.949221     -5067.7804     -83.317097      5.792948       5.792948       5.792948      -5762.5553     -13564.051      4123.265     
     25600   205.49646     -81.829377     -72.641188     -5329.3101     -87.934967      5.8164229      5.8164229      5.8164229     -1665.4679     -18066.701      3744.2389    
     25700   152.92026     -81.473687     -74.636293     -5752.0104     -90.926426      5.7908595      5.7908595      5.7908595     -17647.275     -7308.2937      7699.5377    
     25800   355.55479     -86.447283     -70.549664      3773.8989     -60.165812      5.7354052      5.7354052      5.7354052      8535.6734     -744.05785      3530.0811    
     25900   358.45792     -84.314003     -68.286578      5701.2671     -52.758822      5.7159331      5.7159331      5.7159331     -6399.3282      17943.295      5559.8344    
     26000   315.98868     -84.327593     -70.19906      -1150.1117     -73.340463      5.7214037      5.7214037      5.7214037     -4815.9284     -9133.1063      10498.7      
     26100   258.77605     -85.434101     -73.863667     -1897.5731     -79.081454      5.734171       5.734171       5.734171      -8640.4458     -2702.6062      5650.3326    
     26200   234.13577     -86.08188      -75.613166     -4647.9523     -88.320979      5.7232724      5.7232724      5.7232724     -9893.1367     -1535.2042     -2515.5159    
     26300   376.91659     -84.372001     -67.51925      -394.06512     -68.573976      5.6828376      5.6828376      5.6828376      10458.296     -17012.799      5372.3079    
     26400   268.09407     -77.723937     -65.736875      14632.618     -26.82538       5.6705693      5.6705693      5.6705693      11103.91       22100.013      10693.931    
     26500   306.23069     -83.945732     -70.253499     -4426.6059     -82.362161      5.724222       5.724222       5.724222      -1511.978      -16725.285      4957.4453    
     26600   289.32735     -84.375156     -71.438707     -2394.3996     -78.132217      5.7658118      5.7658118      5.7658118     -5858.9694     -3236.98        1912.7505    
     26700   293.97192     -84.002391     -70.858275     -8045.4581     -93.577854      5.7852821      5.7852821      5.7852821     -6859.3555     -16603.371     -673.64742    
     26800   333.16777     -79.434592     -64.537944      3025.5017     -56.067776      5.7686331      5.7686331      5.7686331      8211.6734     -5533.2853      6398.1169    
     26900   367.09274     -82.200488     -65.786982      1518.6362     -61.596521      5.7408654      5.7408654      5.7408654      518.14878      72.616604      3965.1433    
     27000   261.5258      -81.473354     -69.779973      2856.3385     -62.010151      5.7135826      5.7135826      5.7135826      6165.4381     -6749.6363      9153.2138    
     27100   288.44506     -84.02802      -71.131021      772.20861     -69.038468      5.7063096      5.7063096      5.7063096     -10009.859      4577.2758      7749.2095    
     27200   350.28644     -85.362885     -69.700825      1766.9913     -64.895574      5.7130572      5.7130572      5.7130572     -3009.0754     -1122.4693      9432.5186    
     27300   264.12461     -81.878166     -70.068586     -4186.1004     -81.554645      5.7300951      5.7300951      5.7300951     -8087.7812     -3687.7121     -782.8079     
     27400   386.61577     -84.535114     -67.248692     -2063.4707     -72.884542      5.7213046      5.7213046      5.7213046     -6296.066      -9686.0889      9791.7428    
     27500   301.69932     -80.478427     -66.988802      2722.0514     -59.56766       5.7178513      5.7178513      5.7178513     -6750.6545      3471.4677      11445.341    
     27600   262.3929      -82.883862     -71.151711      1945.5466     -65.822797      5.7267346      5.7267346      5.7267346     -10045.042      11208.332      4673.3496    
     27700   156.10476     -80.49961      -73.519831     -1887.195      -78.714023      5.7359907      5.7359907      5.7359907     -1627.1526     -5163.8292      1129.3968    
     27800   263.77346     -81.690362     -69.896483      4507.2859     -57.471821      5.7389336      5.7389336      5.7389336     -6591.3407      8503.6178      11609.581    
     27900   306.45619     -84.032772     -70.330457     -2066.7543     -76.09547       5.7616276      5.7616276      5.7616276     -1982.1564     -12255.079      8036.9725    
     28000   331.41809     -84.152667     -69.334251      2843.7777     -61.354004      5.7731777      5.7731777      5.7731777      1989.4055      5585.1541      956.77358    
     28100   287.97803     -83.515777     -70.63966       22.660755     -70.575848      5.7798641      5.7798641      5.7798641      930.15749     -10783.412      9921.2369    
     28200   249.4375      -87.319573     -76.166686     -5872.8672     -92.486262      5.7543234      5.7543234      5.7543234     -12197.317     -7211.1563      1789.8721    
     28300   292.87208     -89.781556     -76.686616     -881.79079     -79.046643      5.6827493      5.6827493      5.6827493     -4746.6834     -4778.035       6879.3461    
     28400   244.35334     -84.827867     -73.902304      11933.916     -42.894904      5.6268953      5.6268953      5.6268953      16336.138      5858.6944      13606.915    
     28500   252.22883     -86.420756     -75.143062      2335.5335     -69.032151      5.640029       5.640029       5.640029      -836.37767      9102.9301     -1259.952     
     28600   359.35915     -83.196018     -67.128297      9253.4024     -42.290982      5.688212       5.688212       5.688212       3304.4117      17890.542      6565.2534    
     28700   300.88782     -80.06406      -66.610718      5185.5136     -51.980614      5.7835335      5.7835335      5.7835335     -1292.4795      3762.6747      13086.346    
     28800   265.35437     -74.35713      -62.492566     -2490.4222     -69.869249      5.8781062      5.8781062      5.8781062     -9724.5828      1354.1531      899.16318    
     28900   485.5748      -76.056843     -54.345749     -10033.435     -85.049334      5.9422992      5.9422992      5.9422992     -11065.459     -20279.294      1244.4482    
     29000   378.90452     -73.012738     -56.071102     -6857.309      -76.997126      5.9367993      5.9367993      5.9367993     -20590.339     -6896.4446      6914.8561    
     29100   376.16021     -78.876084     -62.057151     -2179.9252     -68.489039      5.8704804      5.8704804      5.8704804      4266.74       -15256.546      4450.0303    
     29200   271.53664     -79.313509     -67.172522     -3985.3821     -78.356433      5.7731914      5.7731914      5.7731914     -10026.416     -4722.6874      2792.957     
     29300   329.92738     -81.537971     -66.786208      1986.8806     -61.48187       5.6779887      5.6779887      5.6779887      307.64385     -887.36102      6540.3589    
     29400   261.97212     -78.465269     -66.751933      10679.012     -38.836824      5.6382474      5.6382474      5.6382474      3181.1199      25803.117      3052.7982    
     29500   266.41881     -85.002699     -73.09054       4417.4964     -61.356529      5.6684563      5.6684563      5.6684563     -2804.6351     -100.41398      16157.538    
     29600   246.55735     -86.978557     -75.954447     -4791.1662     -89.056966      5.7237311      5.7237311      5.7237311     -8193.7836     -7751.5118      1571.7968    
     29700   313.54371     -85.707664     -71.68845      -4173.3232     -83.221174      5.7436944      5.7436944      5.7436944     -9850.1194     -10373.098      7703.2475    
     29800   309.19061     -83.29981      -69.475233     -3577.093      -79.313892      5.7346896      5.7346896      5.7346896     -4611.245      -7966.3723      1846.3382    
     29900   385.24878     -85.047311     -67.822009     -1643.6858     -72.286891      5.7109072      5.7109072      5.7109072     -4680.0423     -5297.4853      5046.4703    
     30000   290.69532     -82.299806     -69.302193      2645.4445     -62.189392      5.6914383      5.6914383      5.6914383      4480.1363      3516.7544     -60.55726     
     30100   298.25986     -82.921094     -69.585254     -302.80567     -70.405046      5.7045469      5.7045469      5.7045469     -7550.0021     -2902.8422      9544.4273    
     30200   188.74976     -80.530503     -72.091096     -215.57233     -72.680726      5.7240527      5.7240527      5.7240527      4398.3075     -10203.921      5158.8963    
     30300   454.24547     -86.998288     -66.687996     -710.28733     -68.635645      5.7288429      5.7288429      5.7288429     -1477.2503     -5608.9013      4955.2896    
     30400   178.31712     -72.686878     -64.713936      4104.6999     -53.474803      5.7260945      5.7260945      5.7260945      2296.8401     -1163.947       11181.207    
     30500   329.7949      -84.037613     -69.291774      3701.3289     -59.065314      5.7433319      5.7433319      5.7433319     -10960.412      13434.979      8629.4201    
     30600   290.31831     -84.215743     -71.234988     -3283.448      -80.392433      5.7613303      5.7613303      5.7613303     -3727.7524     -12532.399      6409.8074    
     30700   237.13734     -80.270237     -69.667317     -893.9841      -72.154805      5.7568528      5.7568528      5.7568528     -10569.626      1989.5641      5898.1094    
     30800   352.374       -84.010554     -68.255155     -1710.7356     -72.963268      5.7358268      5.7358268      5.7358268     -8372.3755     -9307.3988      12547.567    
     30900   379.1246      -85.305587     -68.354111     -1594.3244     -72.677257      5.7075421      5.7075421      5.7075421     -4896.5995     -8943.1498      9056.776     
     31000   246.78558     -83.248525     -72.21421       2408.7693     -65.703199      5.7015437      5.7015437      5.7015437     -751.45413      5605.6494      2372.1126    
     31100   256.82184     -86.788406     -75.305349      12.707052     -75.270745      5.7157318      5.7157318      5.7157318     -4459.766      -1731.0086      6228.8957    
     31200   322.36733     -85.501065     -71.087328     -1834.2296     -76.112363      5.7271227      5.7271227      5.7271227     -7092.1799     -13080.573      14670.064    
     31300   367.99372     -81.872206     -65.418415      1134.0133     -62.325439      5.7186584      5.7186584      5.7186584     -2277.3553     -4288.688       9968.0833    
     31400   362.18179     -77.63424      -61.440313      7836.5888     -39.956806      5.7284098      5.7284098      5.7284098      4682.8794      12563.151      6263.7358    
     31500   294.06715     -79.571164     -66.422789     -1136.7132     -69.658188      5.8005208      5.8005208      5.8005208     -3523.3033     -7249.143       7362.3066    
     31600   291.49951     -81.364992     -68.331422     -1525.3642     -72.845187      5.876199       5.876199       5.876199      -12774.404      819.49316      7378.8181    
     31700   238.22355     -76.969623     -66.318136     -7695.1917     -89.341122      5.8977827      5.8977827      5.8977827     -11845.054     -12993.441      1752.9206    
     31800   474.81644     -85.685157     -64.455093     -10344.53      -94.606914      5.846675       5.846675       5.846675      -16054.819     -17553.55       2574.7771    
     31900   303.25879     -79.181681     -65.622329      4976.508      -52.013405      5.7236674      5.7236674      5.7236674      11019.993     -3722.0221      7631.5532    
     32000   328.33953     -88.603691     -73.922925      5348.1393     -60.148619      5.6104415      5.6104415      5.6104415      3356.4         7004.1741      5683.8437    
     32100   236.50687     -86.269421     -75.69469       16478.878     -34.374657      5.5605666      5.5605666      5.5605666      14311.164      26460.413      8665.0553    
     32200   299.15392     -87.243565     -73.86775       1168.7656     -70.811132      5.6391364      5.6391364      5.6391364     -5161.039       3818.8589      4848.4768    
     32300   303.96185     -82.452527     -68.861739     -5042.4536     -83.021368      5.7744597      5.7744597      5.7744597     -18798.494     -4562.54        8233.673     
     32400   295.71965     -77.610442     -64.38818      -3032.6532     -73.506006      5.9074159      5.9074159      5.9074159     -2549.6728     -7870.1802      1321.8934    
     32500   298.26641     -75.987128     -62.650995     -3945.6275     -75.15275       6.0116406      6.0116406      6.0116406     -5153.5153     -10478.997      3795.6297    
     32600   364.26329     -76.325498     -60.038503     -9169.743      -89.375129      6.0310423      6.0310423      6.0310423     -15839.759     -11085.689     -583.78153    
     32700   290.15716     -78.009965     -65.036414     -10873.236     -98.679107      5.9641975      5.9641975      5.9641975     -25442.927     -8692.7778      1515.9967    
     32800   249.78886     -80.961901     -69.793304     -1843.2265     -75.02057       5.7934868      5.7934868      5.7934868     -6289.3441      288.99251      470.67199    
     32900   438.94745     -81.686631     -62.060347      8741.9036     -39.453519      5.618054       5.618054       5.618054       9610.4475      8074.2117      8541.0516    
     33000   409.53145     -76.173978     -57.862946      13975.219     -22.302734      5.5878312      5.5878312      5.5878312      616.20239      28157.534      13151.92     
     33100   368.0442      -81.154076     -64.698028      5026.656      -51.038572      5.7116218      5.7116218      5.7116218      897.0075       10186.21       3996.7505    
     33200   281.03195     -80.909216     -68.343673     -9163.3552     -95.519268      5.8805266      5.8805266      5.8805266     -21619.781     -11151.549      5281.2639    
     33300   247.9311      -79.278346     -68.192813     -5200.3347     -84.177187      5.951085       5.951085       5.951085      -8257.1434     -9911.9847      2568.124     
     33400   262.82597     -77.289745     -65.538231     -5786.0419     -83.268666      5.945029       5.945029       5.945029      -14150.084     -5923.3252      2715.2839    
     33500   425.4378      -81.77508      -62.752841     -10774.18      -94.618346      5.8751672      5.8751672      5.8751672     -10590.414     -21365.085     -367.04088    
     33600   390.33923     -80.217918     -62.765011      4571.5611     -50.044143      5.7569454      5.7569454      5.7569454      2835.845      -4079.8809      14958.719    
     33700   281.09416     -79.649635     -67.081311      5767.9834     -51.697616      5.6761464      5.6761464      5.6761464     -5647.1608      8157.3026      14793.808    
     33800   339.34841     -85.335947     -70.16295       4008.2233     -59.56872       5.6590977      5.6590977      5.6590977     -5895.9422      10305.805      7614.8067    
     33900   249.98182     -84.136044     -72.95882       1949.6144     -67.775858      5.6700183      5.6700183      5.6700183      1519.4121     -2132.2331      6461.6641    
     34000   241.51676     -84.9082       -74.109466     -823.18056     -76.330389      5.6979782      5.6979782      5.6979782     -7848.6613      1847.3325      3531.787     
     34100   256.36209     -80.200336     -68.737835      5393.7289     -53.857753      5.7404611      5.7404611      5.7404611      4693.5485     -706.64819      12194.286    
     34200   288.82685     -79.496195     -66.582126     -2338.6687     -73.232966      5.7988779      5.7988779      5.7988779     -2738.178      -5389.4336      1111.6054    
     34300   395.4282      -83.484468     -65.804023     -6773.038      -85.294142      5.8217252      5.8217252      5.8217252     -7182.9918     -14382.155      1246.0333    
     34400   241.82437     -80.134257     -69.321769     -3741.2883     -79.97723       5.8017417      5.8017417      5.8017417     -13031.18      -8249.7302      10057.045    
     34500   397.88497     -85.914168     -68.123875     -6690.1037     -86.784911      5.7615898      5.7615898      5.7615898     -9028.9067     -14239.693      3198.2886    
     34600   238.90122     -82.682978     -72.001191      2798.1756     -64.483596      5.6899618      5.6899618      5.6899618      5382.2338     -2565.4235      5577.7166    
     34700   254.57864     -88.817944     -77.435185      326.52955     -76.585097      5.6306066      5.6306066      5.6306066     -8576.2151      4956.5494      4599.2544    
     34800   210.66502     -86.67958      -77.260294      1653.8191     -73.015269      5.6040945      5.6040945      5.6040945      2954.4476     -7230.4353      9237.445     
     34900   262.67072     -88.115572     -76.370999      5300.4304     -62.644455      5.6207128      5.6207128      5.6207128     -920.47592      13683.85       3137.9173    
     35000   260.61908     -82.992261     -71.339421      2363.1491     -65.016638      5.682164       5.682164       5.682164      -3912.2738      8691.0122      2310.7089    
     35100   284.4954      -78.867135     -66.146734      2777.0617     -58.364548      5.7704993      5.7704993      5.7704993     -10991.306     -2262.7489      21585.24     
     35200   293.00296     -79.957192     -66.8564       -4825.056      -80.961897      5.8524366      5.8524366      5.8524366     -1586.3547     -14379.355      1490.5421    
     35300   239.27085     -79.15253      -68.454215     -8021.9058     -92.162803      5.8737764      5.8737764      5.8737764     -8949.7049     -18883.886      3767.8737    
     35400   387.94201     -84.148022     -66.802301     -4187.2036     -78.730348      5.8021612      5.8021612      5.8021612     -12299.249     -9603.0126      9340.6503    
     35500   263.22284     -82.944431     -71.175172      7008.7647     -52.426292      5.6818006      5.6818006      5.6818006      19336.036     -8359.7689      10050.027    
     35600   279.42689     -84.225186     -71.731409      9943.9862     -46.440064      5.5869978      5.5869978      5.5869978      10138.913      13948.388      5744.6581    
     35700   291.64942     -84.454225     -71.413953      10047.427     -45.968668      5.579032       5.579032       5.579032       17601.875      2855.6686      9684.7371    
     35800   339.9948      -82.198379     -66.99648       8175.0117     -45.315359      5.6655119      5.6655119      5.6655119      18342.574     -4191.9651      10374.427    
     35900   309.11184     -78.952403     -65.131348     -6492.9778     -83.53274       5.792201       5.792201       5.792201      -10845.266     -15301.568      6667.9005    
     36000   222.0211      -83.49612      -73.56908      -7604.4455     -96.031233      5.8726752      5.8726752      5.8726752     -13540.233     -8660.2686     -612.83436    
     36100   227.701       -81.571349     -71.390347     -7919.0012     -94.621672      5.8592571      5.8592571      5.8592571     -8102.0564     -25521.807      9866.8602    
     36200   327.0933      -83.22001      -68.594965     -3610.0277     -78.747271      5.7773156      5.7773156      5.7773156     -2127.0058     -17939.098      9236.0202    
     36300   275.56058     -82.067019     -69.746113      6505.8481     -52.291613      5.6873401      5.6873401      5.6873401      3448.4996      7281.1779      8787.8668    
     36400   350.69243     -84.764029     -69.083816      5127.9497     -55.555337      5.6555708      5.6555708      5.6555708      3450.1089     -1541.7591      13475.499    
     36500   223.52258     -81.886873     -71.892697      9389.2339     -46.709207      5.6868262      5.6868262      5.6868262      3785.7862      4945.4237      19436.492    
     36600   288.61341     -87.448468     -74.543942     -6551.3138     -92.623242      5.7410647      5.7410647      5.7410647     -14448.343     -7809.3604      2603.7614    
     36700   236.61183     -86.469395     -75.889971     -2905.8556     -83.933997      5.747          5.747          5.747         -7955.4321     -15786.759      15024.625    
     36800   224.94914     -86.218315     -76.160355     -2071.287      -81.788573      5.7115184      5.7115184      5.7115184     -2200.2605     -15271.724      11258.124    
     36900   304.53999     -84.063354     -70.446715      3508.1        -61.142888      5.6654958      5.6654958      5.6654958      8920.3972     -8235.4887      9839.3914    
     37000   267.09034     -80.648397     -68.706214      8938.6772     -44.986188      5.6665928      5.6665928      5.6665928      5917.4348      9419.3371      11479.26     
     37100   277.17847     -84.804623     -72.411377     -5289.8048     -86.892241      5.72567        5.72567        5.72567       -5438.8182     -9373.7358     -1056.8604    
     37200   322.23362     -84.228223     -69.820465     -717.21182     -71.827881      5.768169       5.768169       5.768169      -43.092475     -6892.4809      4783.9379    
     37300   219.50577     -75.750098     -65.935523      23.997375     -65.867588      5.7900749      5.7900749      5.7900749     -14278.289      3902.3562      10447.925    
     37400   417.58533     -80.852929     -62.181791     -134.61793     -62.564475      5.7981212      5.7981212      5.7981212     -10456.412      2586.2537      7466.3048    
     37500   301.12072     -79.815675     -66.35192      -5216.989      -81.221892      5.8032523      5.8032523      5.8032523     -6044.6083     -14226.085      4619.7259    
     37600   300.54255     -82.825348     -69.387444     -1116.0708     -72.5405        5.7861278      5.7861278      5.7861278     -5280.7013     -4777.7319      6710.2209    
     37700   335.92638     -84.467032     -69.447041     -794.95142     -71.656516      5.75472        5.75472        5.75472       -3325.4678     -5375.3114      6315.9249    
     37800   289.6244      -84.973247     -72.023518      4927.4559     -58.544986      5.724198       5.724198       5.724198       8391.7164      4201.3479      2189.3034    
     37900   263.84107     -81.029177     -69.232275     -310.55481     -70.079319      5.7186985      5.7186985      5.7186985     -3588.2393      3461.343      -804.7681     
     38000   334.19308     -78.786668     -63.844177      6634.6322     -45.77668       5.7156868      5.7156868      5.7156868     -6311.5628      4343.9255      21871.534    
     38100   448.94599     -83.579703     -63.506362     -2067.1139     -69.266717      5.7597415      5.7597415      5.7597415     -5498.2274     -8999.4596      8296.3453    
     38200   328.95324     -81.498345     -66.790138     -3463.9885     -76.687662      5.8079751      5.8079751      5.8079751     -13260.213     -2858.375       5726.6226    
     38300   221.28309     -80.096728     -70.202686     -5998.8032     -87.411164      5.815682       5.815682       5.815682      -14837.829     -10019.593      6861.0122    
     38400   347.95794     -86.324205     -70.766257     -8030.2046     -93.205981      5.7650756      5.7650756      5.7650756     -14215.378     -22144.074      12268.839    
     38500   402.04044     -83.900959     -65.924866      5949.3208     -50.146117      5.6655634      5.6655634      5.6655634      17610.848     -12313.139      12550.253    
     38600   318.43703     -74.78214      -60.544136      14325.172     -23.376241      5.624243       5.624243       5.624243       12509.314      5217.0284      25249.173    
     38700   443.54713     -78.335906     -58.503961      11555.403     -27.112071      5.7110876      5.7110876      5.7110876      2528.2058      20486.462      11651.542    
     38800   408.38175     -76.837091     -58.577464     -7691.4954     -81.557547      5.895061       5.895061       5.895061      -5991.6673     -22086.276      5003.4567    
     38900   292.32753     -73.424269     -60.353677     -6961.1579     -82.78063       6.0451113      6.0451113      6.0451113     -7098.1906     -14155.904      370.62049    
     39000   223.51259     -71.957983     -61.964254     -6434.5461     -83.137184      6.0878281      6.0878281      6.0878281     -6355.9409     -12463.308     -484.38897    
     39100   288.44561     -74.268149     -61.371126     -6939.8705     -83.6575        6.0386156      6.0386156      6.0386156     -9310.8886     -19342.874      7834.1512    
     39200   311.61056     -76.48043      -62.547652     -1824.5703     -68.056319      5.915662       5.915662       5.915662       902.38169     -16020.351      9644.2582    
     39300   358.50292     -76.49208      -60.462643      270.98892     -59.70257       5.7722178      5.7722178      5.7722178      4243.9943     -13992.66       10561.633    
     39400   258.03819     -78.399007     -66.861565      6605.9537     -49.318975      5.6679685      5.6679685      5.6679685      1790.5406      11358.377      6668.9438    
     39500   249.90862     -81.692514     -70.518562      9352.3873     -46.089185      5.6368699      5.6368699      5.6368699      16770.837     -130.6895       11417.014    
     39600   226.98413     -80.375515     -70.226566      7055.0859     -51.356028      5.6815744      5.6815744      5.6815744      11809.386      8726.7972      629.07434    
     39700   311.19122     -79.923849     -66.00982       2632.0224     -58.612032      5.7762432      5.7762432      5.7762432      15593.943     -7453.246      -244.62986    
     39800   326.42023     -79.587482     -64.992532     -4630.3689     -78.611741      5.8643535      5.8643535      5.8643535     -9133.9466     -14541.748      9784.5878    
     39900   335.09757     -75.750587     -60.767654     -4002.8393     -72.690802      5.8891005      5.8891005      5.8891005     -9153.8256     -548.11084     -2306.5814    
     40000   306.58225     -81.648202     -67.94025      -8849.3313     -93.938787      5.862113       5.862113       5.862113      -10813.437     -14630.297     -1104.2598    
     40100   216.49745     -84.354604     -74.674538     -5999.1847     -91.437557      5.7649389      5.7649389      5.7649389     -7573.8629     -12073.005      1649.3138    
     40200   181.45632     -80.657445     -72.544143      11313.943     -42.776413      5.6504792      5.6504792      5.6504792      6071.5371      11059.337      16810.954    
     40300   290.70386     -81.524191     -68.526196      13875.797     -32.358429      5.6328643      5.6328643      5.6328643      32332.925      4110.3094      5184.1565    
     40400   319.20596     -82.043691     -67.771306     -2254.2429     -73.871924      5.7038189      5.7038189      5.7038189     -2362.0898     -6113.5096      1712.8707    
     40500   287.22628     -81.428068     -68.585563     -60.784597     -68.756029      5.7719484      5.7719484      5.7719484      8231.0706     -17487.673      9074.2482    
     40600   246.77645     -85.001028     -73.967122     -5739.1399     -90.296644      5.7998521      5.7998521      5.7998521     -13728.177     -10711.007      7221.7638    
     40700   171.803       -84.7727       -77.091019     -3224.2356     -86.089459      5.7626405      5.7626405      5.7626405     -75.971124     -11694.948      2098.2126    
     40800   176.72603     -86.056105     -78.154304      29.119511     -78.07616       5.6878269      5.6878269      5.6878269     -2291.8508      2068.0957      311.11362    
     40900   219.68661     -88.003577     -78.180916      6055.2969     -62.438713      5.6279651      5.6279651      5.6279651      16179.403     -1958.5555      3945.0437    
     41000   234.56575     -80.908383     -70.420444      13263.369     -36.058893      5.6214411      5.6214411      5.6214411      11646.139      18879.448      9264.5214    
     41100   411.29202     -85.304279     -66.914528      801.74445     -64.752805      5.6967799      5.6967799      5.6967799     -2264.3373      1197.9624      3471.6082    
     41200   299.04184     -81.01305      -67.642246     -2289.9955     -74.122664      5.7893636      5.7893636      5.7893636     -1255.4116     -4269.3069     -1345.268     
     41300   325.51986     -77.321906     -62.767213     -2805.0585     -70.972999      5.8537495      5.8537495      5.8537495     -10818.423     -5103.5579      7506.8054    
     41400   382.8505      -78.29011      -61.172041     -6297.1544     -79.983122      5.894738       5.894738       5.894738      -23850.818     -6968.4542      11927.809    
     41500   347.34864     -80.098942     -64.568237     -8893.8369     -90.900232      5.8772329      5.8772329      5.8772329     -10003.654     -17994.41       1316.5537    
     41600   236.15737     -81.567496     -71.008392      2683.2744     -63.426425      5.7864692      5.7864692      5.7864692     -5005.6497     -3306.1257      16361.599    
     41700   271.83725     -83.904146     -71.749718     -2447.1554     -78.360742      5.7004668      5.7004668      5.7004668     -2723.4848     -9590.6341      4972.6525    
     41800   364.1876      -82.329362     -66.045752      11896.657     -34.91007       5.6405204      5.6405204      5.6405204      25830.367      4054.5734      5805.032     
     41900   388.75946     -83.011066     -65.628794      7714.7092     -45.085025      5.6732017      5.6732017      5.6732017      12588.249      9637.4652      918.41335    
     42000   459.22532     -80.124857     -59.591905     -254.89228     -60.310922      5.7832081      5.7832081      5.7832081     -937.87683     -5895.3886      6068.5886    
     42100   287.87868     -80.837798     -67.966123     -6171.4969     -86.544883      5.909945       5.909945       5.909945      -12470.367     -6731.5224      687.39851    
     42200   268.9355      -79.118154     -67.093469     -8539.0832     -94.006908      6.0010515      6.0010515      6.0010515     -18821.088     -5397.625      -1398.5365    
     42300   357.43681     -78.188937     -62.207169     -10093.587     -93.871295      5.9916812      5.9916812      5.9916812     -14915.206     -13226.084     -2139.4711    
     42400   246.66112     -79.720949     -68.6922       -6352.8419     -87.516874      5.8788789      5.8788789      5.8788789     -12518.576     -15325.801      8785.8514    
     42500   245.29067     -84.288178     -73.320705      248.50836     -72.644548      5.7140426      5.7140426      5.7140426     -9919.9663      5587.0675      5078.4239    
     42600   206.5736      -89.045026     -79.808676      8674.0847     -58.047188      5.5615565      5.5615565      5.5615565      16669.307      2423.3583      6929.589     
     42700   139.85461     -84.371636     -78.118436      19163.405     -31.200918      5.5164814      5.5164814      5.5164814      18188.026      33925.311      5376.8776    
     42800   240.17256     -86.976262     -76.23763       7605.3431     -56.797419      5.5963142      5.5963142      5.5963142      11730.861      780.2228       10304.945    
     42900   258.90525     -84.93453      -73.358319     -3552.1807     -83.017427      5.7128835      5.7128835      5.7128835     -11402.949     -12454.06       13200.467    
     43000   255.69478     -79.637387     -68.204723     -5266.4757     -83.148166      5.7945302      5.7945302      5.7945302     -11341.911     -7088.8937      2631.377     
     43100   365.5821      -81.591579     -65.245617     -5665.2302     -81.493199      5.8152058      5.8152058      5.8152058     -10045.121     -8574.9686      1624.399     
     43200   379.26958     -80.269345     -63.311387      83.925275     -63.073889      5.7893591      5.7893591      5.7893591     -14706.018      10136.933      4820.8609    
     43300   234.24712     -77.467921     -66.994229      1910.5702     -61.642729      5.7695978      5.7695978      5.7695978     -3634.9598     -2523.1042      11889.775    
     43400   243.64353     -78.088092     -67.194266      3706.7302     -56.949891      5.7438911      5.7438911      5.7438911      11728.812      1289.7949     -1898.4164    
     43500   273.72044     -81.96889      -69.730261     -268.34894     -70.465032      5.7260989      5.7260989      5.7260989      4444.6539     -16402.259      11152.558    
     43600   319.94497     -84.124896     -69.819469      7567.0052     -49.335271      5.7043524      5.7043524      5.7043524      7565.2984      9171.4784      5964.2389    
     43700   302.79147     -84.37193      -70.833472      5936.6462     -54.847282      5.6943301      5.6943301      5.6943301      2499.9106      14394.391      915.63709    
     43800   205.35689     -83.716877     -74.534928     -1834.2995     -79.489041      5.699979       5.699979       5.699979      -14752.704      779.13215      8470.6737    
     43900   290.40204     -87.55835      -74.57385      -3614.7149     -84.363248      5.7051712      5.7051712      5.7051712     -14355.617     -352.16362      3863.636     
     44000   293.14524     -83.406722     -70.299567      3107.7255     -61.945462      5.6910683      5.6910683      5.6910683     -2526.78        1202.1889      10647.768    
     44100   267.07206     -77.980833     -66.039467      7218.0316     -46.530871      5.7013423      5.7013423      5.7013423     -4385.0395      12796.19       13242.944    
[...]
     91200   262.63425     -76.460111     -64.717168     -6049.1224     -82.861206      5.9027614      5.9027614      5.9027614     -14322.462     -9260.1466      5435.2417    
     91300   456.65837     -80.362065     -59.943888     -7118.1752     -81.654361      5.9357405      5.9357405      5.9357405     -9109.5758     -22050.234      9805.2839    
     91400   334.07994     -81.153578     -66.216146     -9075.9539     -93.423063      5.9016084      5.9016084      5.9016084     -20526.503     -19540.969      12839.61     
     91500   265.51337     -84.568605     -72.696931     -2741.0099     -80.47181       5.7938742      5.7938742      5.7938742     -12278.312     -3210.5659      7265.8479    
     91600   217.54095     -80.514795     -70.788071      5312.6629     -56.7026        5.6649281      5.6649281      5.6649281      9364.2558      5005.0721      1568.6609    
     91700   429.74539     -85.006688     -65.791848      7695.1094     -45.987189      5.6090876      5.6090876      5.6090876      8281.7309      5233.3247      9570.2727    
     91800   312.13219     -83.377585     -69.421483      8845.2381     -46.129789      5.65204        5.65204        5.65204        10535.724      7388.3594      8611.631     
     91900   228.11318     -82.526335     -72.326904     -4580.0452     -84.945595      5.737943       5.737943       5.737943      -17086.445     -9150.0107      12496.32     
     92000   308.66057     -82.797257     -68.99638      -2991.1364     -77.489591      5.7958874      5.7958874      5.7958874     -3103.9571     -6794.0216      924.56951    
     92100   298.93898     -79.705147     -66.338943     -1592.9302     -70.902673      5.8132069      5.8132069      5.8132069      14581.526     -20177.282      816.96542    
     92200   411.44178     -79.954446     -61.557999      268.23503     -60.794725      5.8000223      5.8000223      5.8000223      1366.4027     -3685.7102      3124.0126    
     92300   321.15652     -80.642846     -66.283247      3648.2839     -55.873919      5.8052295      5.8052295      5.8052295      11037.875     -2399.1836      2306.1601    
     92400   229.12534     -80.515541     -70.270854     -2673.9117     -77.875523      5.7989912      5.7989912      5.7989912     -7931.3228     -5730.3161      5639.9038    
     92500   339.10362     -84.964601     -69.802549     -3048.4158     -78.264825      5.7523553      5.7523553      5.7523553      3326.1259     -12628.16       156.78646    
     92600   244.16088     -80.070567     -69.153609      4512.3019     -57.028061      5.6903954      5.6903954      5.6903954     -2391.3818      12577.442      3350.8456    
     92700   338.92126     -84.307451     -69.153553      2855.4376     -61.558395      5.6710403      5.6710403      5.6710403      6392.5325     -3100.5635      5274.344     
     92800   382.33184     -81.82501      -64.730131      4174.1703     -53.493936      5.6936541      5.6936541      5.6936541      3942.876       3970.4159      4609.219     
     92900   337.85196     -83.965877     -68.859789     -3250.6064     -77.883424      5.7523734      5.7523734      5.7523734     -5284.4982     -8334.8015      3867.4804    
     93000   233.28993     -82.643118     -72.212224     -2313.4611     -78.821479      5.8077086      5.8077086      5.8077086     -10000.034     -5007.9696      8067.6204    
     93100   203.2043      -84.059304     -74.973603     -7469.327      -96.631349      5.8364929      5.8364929      5.8364929     -18089.5       -2346.32       -1972.1607    
     93200   201.9483      -76.691208     -67.661665     -248.55517     -68.366519      5.7933995      5.7933995      5.7933995     -13806.149      4038.9427      9021.5404    
     93300   412.90953     -87.459893     -68.99782      -5106.7327     -82.930755      5.7192779      5.7192779      5.7192779     -8093.5859     -21631.226      14404.614    
     93400   271.08185     -84.311933     -72.191281      11235.704     -42.937853      5.6307579      5.6307579      5.6307579      14680.461      15720.457      3306.1957    
     93500   271.20251     -84.208319     -72.082271      6990.3651     -54.157581      5.6022004      5.6022004      5.6022004      8670.1756      5210.5485      7090.371     
     93600   274.50934     -85.783716     -73.509813      300.71797     -72.712964      5.6638745      5.6638745      5.6638745     -6816.7496     -9142.0005      16860.904    
     93700   248.31339     -82.669762     -71.567136     -3546.7491     -81.427381      5.7552003      5.7552003      5.7552003     -10286.547     -12966.81       12613.11     
     93800   430.35079     -82.891697     -63.649788      130.55743     -63.273812      5.8231905      5.8231905      5.8231905      70.941311     -1388.4343      1709.1652    
     93900   281.27571     -79.515061     -66.938619     -6870.0828     -87.302216      5.8794795      5.8794795      5.8794795     -684.82561     -15235.565     -4689.8582    
     94000   288.42057     -83.182913     -70.287009     -8531.5824     -95.563807      5.8785768      5.8785768      5.8785768     -9237.7376     -19063.944      2706.9347    
     94100   261.01734     -83.14019      -71.469543     -1741.2112     -76.426793      5.8010219      5.8010219      5.8010219     -10887.499      945.66347      4718.2021    
     94200   313.25809     -82.215477     -68.209034      5976.4424     -52.080834      5.6984371      5.6984371      5.6984371      2102.5399      9740.4417      6086.3456    
     94300   349.12802     -78.480698     -62.870433      10269.659     -36.287774      5.6198169      5.6198169      5.6198169      22774.706      2260.9345      5773.3376    
     94400   376.05634     -80.583406     -63.769118      9410.9921     -39.019328      5.6496309      5.6496309      5.6496309     -9199.7885      28290.595      9142.1699    
     94500   209.23321     -79.717716     -70.362449     -3196.296      -79.371424      5.781637       5.781637       5.781637      -10039.449     -3046.9685      3497.5294    
     94600   266.84776     -81.397952     -69.466615     -8277.4685     -93.959405      5.8760878      5.8760878      5.8760878     -12268.796     -14787.263      2223.6535    
     94700   270.48869     -80.254798     -68.160667     -6064.6867     -86.122418      5.8778902      5.8778902      5.8778902     -5144.9011     -17280.2        4231.0415    
     94800   391.36922     -83.849645     -66.350686     -6230.7446     -84.176897      5.810512       5.810512       5.810512      -11324.834     -9892.4335      2525.034     
     94900   345.98638     -82.420807     -66.951012     -534.79808     -68.400906      5.707205       5.707205       5.707205      -3384.5041     -7734.2941      9514.4039    
     95000   270.0311      -81.315997     -69.242326      9275.7298     -45.238788      5.6193199      5.6193199      5.6193199      5477.4661      16753.48       5596.2431    
     95100   288.98431     -80.726189     -67.805079      10046.68      -41.804193      5.6194857      5.6194857      5.6194857      7052.3891      13810.317      9277.3323    
     95200   386.63161     -79.476932     -62.189801      12780.385     -27.579804      5.7050647      5.7050647      5.7050647      6042.4156      22646.023      9652.7172    
     95300   239.53225     -78.735032     -68.025029     -1168.3212     -71.436075      5.8499182      5.8499182      5.8499182     -1721.6231     -8848.0241      7064.6835    
     95400   320.85273     -81.280059     -66.934043     -8951.8413     -94.373781      5.9456211      5.9456211      5.9456211     -11535.422     -15023.126     -296.97568    
     95500   242.71916     -79.403098     -68.550603     -9831.8595     -98.604246      5.9401197      5.9401197      5.9401197     -15603.345     -12032.004     -1860.2297    
     95600   240.33613     -80.921977     -70.176031     -9760.568      -98.368307      5.8289865      5.8289865      5.8289865     -17770.758     -9670.8615     -1840.0843    
     95700   331.77096     -77.519312     -62.685118      7743.1317     -42.061606      5.6735737      5.6735737      5.6735737      1182.9595      21743.465      302.97065    
     95800   318.09605     -76.135168     -61.91241       12931.433     -28.67746       5.6064872      5.6064872      5.6064872      21739.072      12760.563      4294.6631    
     95900   427.70951     -85.787381     -66.663568      5746.9762     -51.445442      5.6625923      5.6625923      5.6625923      8272.9398      3879.4167      5088.5721    
     96000   266.72895     -80.329883     -68.403858     -3601.979      -78.567807      5.783825       5.783825       5.783825      -10589.28      -16485.705      16269.048    
     96100   262.10577     -82.193532     -70.474219     -3481.1645     -80.788219      5.8786224      5.8786224      5.8786224     -2286.0261     -10877.266      2719.799     
     96200   206.56212     -80.577803     -71.341967     -4505.1167     -84.869358      5.904875       5.904875       5.904875      -7417.9025     -8217.9371      2120.4894    
     96300   308.84034     -76.596135     -62.787219      2362.1292     -55.807849      5.8732557      5.8732557      5.8732557     -3896.4977      2523.5806      8459.3047    
     96400   315.08947     -79.228844     -65.140516     -541.68118     -66.696281      5.8180142      5.8180142      5.8180142      7486.4762     -2825.0765     -6286.4432    
     96500   332.62316     -83.689245     -68.816948     -1774.4038     -73.735663      5.7496461      5.7496461      5.7496461     -7390.5414     -125.285        2192.6151    
     96600   343.40671     -83.418888     -68.064436      5294.0956     -53.842103      5.6898531      5.6898531      5.6898531     -1517.1244      4882.0408      12517.37     
     96700   304.07351     -87.377058     -73.781278     -1510.1588     -77.805152      5.6743392      5.6743392      5.6743392     -7880.3648      524.50736      2825.3812    
     96800   301.77828     -88.047391     -74.554235      757.4973      -72.525409      5.6841119      5.6841119      5.6841119     -2780.0188     -7426.4985      12479.009    
     96900   224.54445     -85.237726     -75.197861      2385.4159     -68.707275      5.7141016      5.7141016      5.7141016      18142.462     -18081.103      7094.8888    
     97000   279.20538     -84.574296     -72.090424     -5136.821      -86.276072      5.7423936      5.7423936      5.7423936     -13476.427     -8964.4217      7030.3863    
     97100   292.8289      -82.815257     -69.722248     -4459.6258     -82.101757      5.7523201      5.7523201      5.7523201     -3951.897      -7089.6916     -2337.2888    
     97200   303.65277     -80.265627     -66.688658      2123.8092     -60.846606      5.7348847      5.7348847      5.7348847      9912.0902     -3072.7027     -467.95987    
     97300   415.68871     -80.919421     -62.333085      11210.854     -31.539256      5.7321345      5.7321345      5.7321345      20653.039      2187.2219      10792.3      
     97400   246.53138     -80.239572     -69.216624      57.885917     -69.054565      5.7686536      5.7686536      5.7686536     -9089.9248      300.15221      8963.4303    
     97500   280.65822     -83.89218      -71.343347     -6189.3691     -88.822986      5.7854444      5.7854444      5.7854444     -4803.5081     -23831.211      10066.612    
     97600   399.62523     -87.488065     -69.619961     -6296.069      -87.113773      5.7541303      5.7541303      5.7541303     -12872.763     -13233.305      7217.8613    
     97700   263.00229     -84.344354     -72.584955      4042.3242     -61.634439      5.7057034      5.7057034      5.7057034      3670.6116     -4661.1997      13117.561    
     97800   261.07133     -77.23325      -65.56019       6385.0543     -48.511498      5.6782807      5.6782807      5.6782807      17108.558     -4060.9866      6107.5914    
     97900   358.87524     -81.309543     -65.263459      907.16795     -62.797562      5.7122045      5.7122045      5.7122045     -3817.0524     -464.6613       7003.2176    
     98000   255.15457     -82.550258     -71.141749      4290.5283     -59.063744      5.7792238      5.7792238      5.7792238      13387.364     -1398.6041      882.82479    
     98100   285.85563     -83.480291     -70.699071     -5936.8426     -87.949289      5.8405586      5.8405586      5.8405586     -12678.21      -11040.509      5908.1918    
     98200   231.22308     -81.680808     -71.342326     -5170.206      -86.361012      5.8400433      5.8400433      5.8400433     -2396.405      -19362.038      6247.825     
     98300   339.05613     -83.095347     -67.935418     -2216.5396     -74.118526      5.7617157      5.7617157      5.7617157     -4973.1201     -5779.3938      4102.895     
     98400   363.69195     -81.763234     -65.501784      8428.3312     -43.311395      5.6517439      5.6517439      5.6517439      10474.384      766.10514      14044.505    
     98500   319.70981     -80.155316     -65.860402      11072.306     -37.181918      5.6210062      5.6210062      5.6210062      12605.853      4502.8614      16108.204    
     98600   273.53753     -79.893813     -67.663362      5754.1255     -52.098645      5.7028945      5.7028945      5.7028945      21086.378     -9802.3781      5978.3764    
     98700   270.26987     -80.305303     -68.220956      1130.2381     -64.941193      5.8380193      5.8380193      5.8380193     -8733.5809      6649.8023      5474.4929    
     98800   335.59134     -80.51172      -65.50671      -5694.0937     -82.89213       5.9378365      5.9378365      5.9378365     -7103.9707     -15211.53       5233.2194    
     98900   234.09021     -74.971309     -64.504632     -3684.3356     -75.815148      5.9486139      5.9486139      5.9486139     -3366.918      -11993.051      4306.962     
     99000   296.74693     -74.870276     -61.602082      18.049505     -61.548623      5.8779684      5.8779684      5.8779684     -3257.3096     -9467.6185      12779.077    
     99100   446.59159     -80.732819     -60.764749     -1339.7608     -64.545128      5.7837666      5.7837666      5.7837666      2678.5611     -14063.072      7365.2289    
     99200   258.47203     -81.88625      -70.329409     -696.50385     -72.19541       5.684655       5.684655       5.684655       2985.4124     -13614.767      8539.8432    
     99300   328.65584     -85.822892     -71.127983      6824.8459     -53.664661      5.5982554      5.5982554      5.5982554      6035.7108      1686.7172      12752.11     
     99400   312.51669     -87.363588     -73.390295      4597.8009     -61.633669      5.5969601      5.5969601      5.5969601      11324.596     -5618.2364      8087.0436    
     99500   205.80897     -84.393949     -75.191787      7897.8885     -54.288272      5.6616647      5.6616647      5.6616647      14602.125      841.73093      8249.8093    
     99600   288.95384     -78.283608     -65.36386       284.86212     -64.569531      5.7609835      5.7609835      5.7609835     -5535.7345     -1898.641       8288.9619    
     99700   329.87489     -78.227511     -63.478096     -6262.276      -81.755604      5.8492874      5.8492874      5.8492874     -7455.1701     -6918.9515     -4412.7066    
     99800   415.07829     -81.246492     -62.687449     -5551.3685     -79.038289      5.8670714      5.8670714      5.8670714     -17001.19      -11587.369      11934.454    
     99900   258.41263     -78.840789     -67.286604     -5111.7451     -82.066489      5.8309858      5.8309858      5.8309858     -16783.804     -5164.47        6613.0384    
    100000   334.73417     -84.215583     -69.248898     -2492.323      -76.253747      5.776164       5.776164       5.776164      -2091.6616     -9249.7653      3864.458     
    100100   187.18523     -82.130724     -73.76127       3251.6538     -64.907982      5.7153321      5.7153321      5.7153321      21549.946     -11652.502     -142.48292    
    100200   210.42603     -79.52709      -70.118489      3638.9311     -60.435543      5.6717786      5.6717786      5.6717786      10205.977     -8039.157       8749.9733    
    100300   341.4581      -83.768196     -68.50087       7374.6837     -48.886983      5.6708495      5.6708495      5.6708495      13200.899      1780.427       7142.7255    
    100400   265.84379     -80.417736     -68.531289      2750.152      -61.039773      5.7162652      5.7162652      5.7162652      9438.4957     -6108.6479      4920.6083    
    100500   370.42615     -83.934465     -67.371915     -3152.8424     -76.230966      5.7756786      5.7756786      5.7756786     -4514.6343     -7651.0603      2707.1673    
    100600   292.76298     -82.847684     -69.757622     -782.88273     -72.010943      5.8221512      5.8221512      5.8221512     -4095.1361     -3331.9344      5078.4223    
    100700   221.93361     -81.515874     -71.592745     -7985.534      -94.697548      5.8323128      5.8323128      5.8323128     -2225.8961     -18728.107     -3002.5989    
    100800   262.93704     -78.754285     -66.997805     -2779.5999     -74.83737       5.7828855      5.7828855      5.7828855     -3044.2763     -5251.848      -42.675438    
    100900   314.81244     -80.814547     -66.738606     -216.58508     -67.334096      5.7339865      5.7339865      5.7339865     -5696.4071      2669.5169      2377.1349    
    101000   259.74558     -81.368004     -69.754221      3861.8144     -59.272497      5.7093738      5.7093738      5.7093738      6951.7394      3964.9914      668.71246    
Loop time of 60.3957 on 1 procs for 100000 steps with 24 atoms

Performance: 143.057 ns/day, 0.168 hours/ns, 1655.747 timesteps/s
82.1% CPU use with 1 MPI tasks x 1 OpenMP threads

MPI task timing breakdown:
Section |  min time  |  avg time  |  max time  |%varavg| %total
---------------------------------------------------------------
Pair    | 27.501     | 27.501     | 27.501     |   0.0 | 45.53
Bond    | 0.081446   | 0.081446   | 0.081446   |   0.0 |  0.13
Kspace  | 5.6955     | 5.6955     | 5.6955     |   0.0 |  9.43
Neigh   | 0.23732    | 0.23732    | 0.23732    |   0.0 |  0.39
Comm    | 2.1437     | 2.1437     | 2.1437     |   0.0 |  3.55
Output  | 0.074632   | 0.074632   | 0.074632   |   0.0 |  0.12
Modify  | 24.147     | 24.147     | 24.147     |   0.0 | 39.98
Other   |            | 0.5153     |            |       |  0.85

Nlocal:             24 ave          24 max          24 min
Histogram: 1 0 0 0 0 0 0 0 0 0
Nghost:           2976 ave        2976 max        2976 min
Histogram: 1 0 0 0 0 0 0 0 0 0
Neighs:          10389 ave       10389 max       10389 min
Histogram: 1 0 0 0 0 0 0 0 0 0

Total # of neighbors = 10389
Ave neighs/atom = 432.875
Ave special neighs/atom = 2
Neighbor list builds = 607
Dangerous builds = 0

write_data  water2.data
System init for write_data ...
PPPM initialization ...
  using 12-bit tables for long-range coulomb (src/kspace.cpp:342)
  G vector (1/distance) = 0.31859105
  grid = 6 6 6
  stencil order = 5
  estimated absolute RMS force accuracy = 0.0014000155
  estimated relative force accuracy = 4.216105e-06
  using double precision FFTW3
  3d grid and FFT values/proc = 2197 216
Generated 0 of 1 mixed pair_coeff terms from geometric mixing rule
WARNING: Not all mixed pair coeffs generated from mixing. Use write_data with 'pair ij' option to store all pair coeffs. (src/write_data.cpp:309)
write_restart     water2.restart
System init for write_restart ...
PPPM initialization ...
  using 12-bit tables for long-range coulomb (src/kspace.cpp:342)
  G vector (1/distance) = 0.31859105
  grid = 6 6 6
  stencil order = 5
  estimated absolute RMS force accuracy = 0.0014000155
  estimated relative force accuracy = 4.216105e-06
  using double precision FFTW3
  3d grid and FFT values/proc = 2197 216
Generated 0 of 1 mixed pair_coeff terms from geometric mixing rule
Total wall time: 0:01:00
