LAMMPS (4 May 2022)
OMP_NUM_THREADS environment is not set. Defaulting to 1 thread. (src/comm.cpp:98)
  using 1 OpenMP thread(s) per MPI task
# spc water - 1=O, 2=H

read_restart    water1.restart
Reading restart file ...
  restart file = 4 May 2022, LAMMPS = 4 May 2022
  restoring atom style full from restart
  orthogonal box = (-0.82289137 -0.82289137 -0.82289137) to (28.722891 28.722891 28.722891)
  1 by 1 by 1 MPI processor grid
  restoring pair style lj/cut/coul/long from restart
  restoring bond style harmonic from restart
  restoring angle style harmonic from restart
  2187 atoms
  1458 bonds
  729 angles
Finding 1-2 1-3 1-4 neighbors ...
  special bond factors lj:    0        0        0       
  special bond factors coul:  0        0        0       
     2 = max # of 1-2 neighbors
     1 = max # of 1-3 neighbors
     1 = max # of 1-4 neighbors
     2 = max # of special neighbors
  special bonds CPU = 0.001 seconds
  read_restart CPU = 0.004 seconds

kspace_style   pppm 1.0e-5

group oxygen type 1
729 atoms in group oxygen

#======================
neighbor        2.0 bin
neigh_modify    every 1 delay 1 check yes
#======================

#reset_timestep 0
timestep 1.0

fix            1 all shake 0.0001 20 0 b 1 a 1
       0 = # of size 2 clusters
       0 = # of size 3 clusters
       0 = # of size 4 clusters
     729 = # of frozen angles
  find clusters CPU = 0.001 seconds
fix            2 all npt temp 300.0 300.0 100.0 iso 1.0 1.0 1000.0
Resetting global fix info from restart file:
  fix style: npt, fix ID: 2
fix            3 all momentum 1 linear 1 1 1
fix	       xwall1 all wall/lj93 xlo EDGE 1.0 1.0 2.5 pbc yes
fix	       xwall2 all wall/lj93 xhi EDGE 1.0 1.0 2.5 pbc yes
fix	       ywall1 all wall/lj93 ylo EDGE 1.0 1.0 2.5 pbc yes
fix	       ywall2 all wall/lj93 yhi EDGE 1.0 1.0 2.5 pbc yes
fix	       zwall1 all wall/lj93 zlo EDGE 1.0 1.0 2.5 pbc yes
fix	       zwall2 all wall/lj93 zhi EDGE 1.0 1.0 2.5 pbc yes

compute	MSD oxygen msd com no
fix 4 oxygen ave/time 1 1 500 c_MSD[4] file ../spc9.msd

thermo 100
thermo_style custom step temp pe etotal press enthalpy lx ly lz pxx pyy pzz
thermo_modify flush yes


dump         2 all custom 1000 md2.lammpstrj id type x y z
#dump_modify  1 unwrap yes
run 100000
PPPM initialization ...
  using 12-bit tables for long-range coulomb (src/kspace.cpp:342)
  G vector (1/distance) = 0.29994523
  grid = 24 24 24
  stencil order = 5
  estimated absolute RMS force accuracy = 0.0035998537
  estimated relative force accuracy = 1.0840853e-05
  using double precision FFTW3
  3d grid and FFT values/proc = 29791 13824
Generated 0 of 1 mixed pair_coeff terms from geometric mixing rule
All restart file global fix info was re-assigned
Neighbor list info ...
  update every 1 steps, delay 1 steps, check yes
  max neighbors/atom: 2000, page size: 100000
  master list distance cutoff = 12
  ghost atom cutoff = 12
  binsize = 6, bins = 5 5 5
  1 neighbor lists, perpetual/occasional/extra = 1 0 0
  (1) pair lj/cut/coul/long, perpetual
      attributes: half, newton on
      pair build: half/bin/newton
      stencil: half/bin/3d
      bin: standard
Per MPI rank memory allocation (min/avg/max) = 14.88 | 14.88 | 14.88 Mbytes
   Step          Temp          PotEng         TotEng         Press         Enthalpy          Lx             Ly             Lz            Pxx            Pyy            Pzz      
      1000   292.13577     -6712.0723     -5443.3149     -3687.1264     -6830.2318      29.545783      29.545783      29.545783     -3861.3493     -4085.3141     -3114.7159    
      1100   306.59552     -6691.0073     -5359.4506     -1740.09       -6004.7991      29.406877      29.406877      29.406877     -1937.8681     -1952.0208     -1330.3813    
      1200   316.69727     -6661.5354     -5286.1064     -1382.2189     -5789.8253      29.235591      29.235591      29.235591     -1078.4295     -1622.8597     -1445.3674    
      1300   303.51696     -6702.6613     -5384.4749     -811.66029     -5675.5587      29.079654      29.079654      29.079654     -688.57279     -620.31874     -1126.0893    
      1400   294.65041     -6812.5882     -5532.9096     -744.84112     -5796.1827      28.939364      28.939364      28.939364     -542.56447     -1005.1542     -686.8047     
      1500   295.45049     -6908.5065     -5625.3531     -293.3058      -5727.7784      28.822847      28.822847      28.822847     -59.861924     -692.62435     -127.43114    
      1600   304.04851     -7019.6482     -5699.1532     -469.02249     -5861.6851      28.749018      28.749018      28.749018     -1179.8534     -776.3895       549.17544    
      1700   294.44106     -7061.3715     -5782.6021     -1107.7685     -6164.2772      28.693903      28.693903      28.693903     -1503.8873     -689.15248     -1130.2658    
      1800   292.84806     -7082.1524     -5810.3015     -388.85199     -5943.2653      28.621409      28.621409      28.621409     -120.57736     -897.36497     -148.61365    
      1900   305.36949     -7093.0526     -5766.8207     -508.65279     -5939.4932      28.552361      28.552361      28.552361     -419.85872     -1350.6652      244.56557    
      2000   300.67084     -7012.8869     -5707.0613      230.67877     -5629.3079      28.484729      28.484729      28.484729      1209.4113     -426.62527     -90.74969     
      2100   314.53904     -7052.1576     -5686.1019      23.001886     -5678.3812      28.444958      28.444958      28.444958     -82.614204      259.57559     -107.95572    
      2200   307.97133     -7107.8402     -5770.3084      137.10881     -5724.4049      28.420698      28.420698      28.420698      304.00243     -27.799459      135.12346    
      2300   294.51894     -7160.561      -5881.4534     -377.22086     -6007.5793      28.408235      28.408235      28.408235     -145.22076     -17.199714     -969.24211    
      2400   289.46687     -7180.5989     -5923.4327     -441.83388     -6070.9796      28.396522      28.396522      28.396522     -507.4576      -95.851881     -722.19215    
      2500   296.09527     -7164.535      -5878.5813      34.775163     -5866.9989      28.371621      28.371621      28.371621     -27.93631       99.794303      32.467496    
      2600   312.45523     -7174.4204     -5817.4148      175.52638     -5759.0409      28.357427      28.357427      28.357427     -551.17381     -18.864752      1096.6177    
      2700   306.19749     -7124.4118     -5794.5838      926.49675     -5486.1334      28.367553      28.367553      28.367553      1564.3079      1627.5684     -412.38612    
      2800   308.792       -7161.6686     -5820.5725     -457.86324     -5973.5605      28.401976      28.401976      28.401976     -894.56136      13.898957     -492.92731    
      2900   294.82973     -7145.3489     -5864.8915      347.98339     -5748.439       28.416558      28.416558      28.416558      1190.3588      255.70696     -402.11555    
      3000   304.28745     -7163.4196     -5841.8869     -320.42134     -5949.3181      28.434414      28.434414      28.434414     -463.76536      165.58721     -663.08587    
      3100   304.55013     -7160.4537     -5837.7802     -876.56969     -6131.8049      28.438528      28.438528      28.438528     -1012.0573     -516.97666     -1100.6751    
      3200   306.13802     -7161.7381     -5832.1684     -448.33878     -5981.9934      28.403211      28.403211      28.403211     -866.86031     -22.541051     -455.61498    
      3300   293.34589     -7129.6698     -5855.6567     -240.70499     -5935.6749      28.353667      28.353667      28.353667     -133.43567      306.68621     -895.36552    
      3400   306.73552     -7192.968      -5860.8033     -297.88        -5959.3003      28.303181      28.303181      28.303181     -248.27042      100.62229     -745.99188    
      3500   296.36807     -7153.2743     -5866.1359      72.517712     -5842.2835      28.253385      28.253385      28.253385     -871.11387      209.8046       878.8624     
      3600   301.48706     -7189.1614     -5879.791       771.70688     -5626.7067      28.225762      28.225762      28.225762      382.04         1432.6099      500.47079    
      3700   305.74421     -7199.0241     -5871.1647      250.79258     -5788.7225      28.247914      28.247914      28.247914      204.24691     -3.7531097      551.88396    
      3800   303.20388     -7194.0345     -5877.2079     -138.20798     -5922.8614      28.293618      28.293618      28.293618      169.46386     -688.92736      104.83955    
      3900   294.77527     -7168.8595     -5888.6386     -345.74729     -6003.4087      28.339882      28.339882      28.339882     -1245.2186      33.622052      174.35465    
      4000   310.59824     -7187.6789     -5838.7382     -528.96756     -6014.763       28.363268      28.363268      28.363268     -178.48621     -726.45429     -681.96219    
      4100   308.09431     -7119.8407     -5781.7747     -490.85177     -5945.0466      28.359272      28.359272      28.359272     -116.76613     -929.08362     -426.70555    
      4200   310.89111     -7122.5629     -5772.3503     -513.46001     -5942.6169      28.33016       28.33016       28.33016      -393.04913     -463.72385     -683.60704    
      4300   308.45245     -7154.6347     -5815.0133     -243.17814     -5895.2195      28.279329      28.279329      28.279329     -148.44888      278.45155     -859.5371     
      4400   295.38862     -7177.351      -5894.4664      529.52936     -5720.6999      28.231459      28.231459      28.231459     -178.46941      1334.1439      432.91358    
      4500   294.6051      -7238.4928     -5959.0111      497.64169     -5795.8336      28.224258      28.224258      28.224258      1098.6502      362.98025      31.294618    
      4600   282.94958     -7211.8047     -5982.9433     -673.13948     -6203.7609      28.228271      28.228271      28.228271     -634.3279       542.80854     -1927.8991    
      4700   310.28319     -7228.8541     -5881.2817      133.17203     -5837.7321      28.198883      28.198883      28.198883     -45.646496      113.55548      331.6071     
      4800   315.72587     -7172.9965     -5801.7864      969.02986     -5484.5281      28.209797      28.209797      28.209797      697.03913      1120.9444      1089.1061    
      4900   307.94012     -7156.9795     -5819.5832     -159.37847     -5872.1613      28.28132       28.28132       28.28132      -684.43132      489.70509     -283.40918    
      5000   296.93915     -7168.1341     -5878.5154     -398.79914     -6010.9339      28.342585      28.342585      28.342585     -427.10233     -394.01878     -375.27632    
      5100   296.95144     -7226.4611     -5936.7891     -652.30249     -6154.0419      28.371361      28.371361      28.371361     -614.01123     -581.14569     -761.75056    
      5200   298.40474     -7240.4108     -5944.427      -231.18544     -6021.3834      28.366306      28.366306      28.366306     -1154.9548      523.36029     -61.961801    
      5300   298.90418     -7233.5706     -5935.4177      325.92497     -5827.1452      28.347074      28.347074      28.347074      342.17716      998.5642      -362.96646    
      5400   293.99643     -7206.217      -5929.3787      164.73424     -5874.6716      28.34401       28.34401       28.34401      -393.22675      900.47048     -13.041023    
      5500   309.58188     -7241.7839     -5897.2573     -123.32331     -5938.267       28.356667      28.356667      28.356667     -169.03746      197.02636     -397.95883    
      5600   303.93375     -7217.6594     -5897.6629     -251.09461     -5981.2097      28.362135      28.362135      28.362135     -563.89181     -208.95919      19.567155    
      5700   302.4821      -7242.6664     -5928.9744      285.76388     -5833.9489      28.356487      28.356487      28.356487      663.79574     -137.11386      330.60977    
      5800   291.80447     -7244.3228     -5977.0043     -699.5821      -6209.4683      28.349608      28.349608      28.349608     -815.91584     -953.64111     -329.18937    
      5900   292.05319     -7247.3694     -5978.9706     -33.473536     -5990.043       28.306617      28.306617      28.306617     -625.44577      127.56086      397.46431    
      6000   300.31828     -7251.0332     -5946.7388      287.423       -5852.0988      28.26349       28.26349       28.26349      -149.10457      98.814592      912.55899    
      6100   296.25347     -7200.5272     -5913.8864      347.60474     -5799.6108      28.24863       28.24863       28.24863       819.83288      463.38596     -240.4046     
      6200   306.28137     -7213.3914     -5883.1991      434.38892     -5740.352       28.251333      28.251333      28.251333      1006.428      -35.527767      332.26652    
      6300   301.60158     -7226.2233     -5916.3554      293.58108     -5819.52        28.279834      28.279834      28.279834      20.604687      568.02938      292.10916    
      6400   289.81558     -7202.8368     -5944.1561     -208.10935     -6013.0871      28.319296      28.319296      28.319296     -752.67445      100.00268      28.34374     
      6500   294.45993     -7204.277      -5925.4257      10.785053     -5921.8455      28.340234      28.340234      28.340234     -596.12761     -473.86933      1102.3521    
      6600   297.08218     -7183.2984     -5893.0585      45.935392     -5877.7908      28.352029      28.352029      28.352029      1144.4483     -525.92148     -480.72065    
      6700   302.29133     -7157.6393     -5844.7758     -167.13786     -5900.3366      28.353446      28.353446      28.353446     -633.63859      240.29294     -108.06791    
      6800   299.93169     -7147.7175     -5845.1021     -141.7275      -5892.1844      28.347148      28.347148      28.347148     -144.64483     -622.64307      342.10541    
      6900   304.59737     -7173.4149     -5850.5363      939.44622     -5538.6135      28.342169      28.342169      28.342169      1089.7039      864.96204      863.67277    
      7000   288.72136     -7153.3613     -5899.4328      626.38462     -5690.5561      28.382959      28.382959      28.382959      5.7343691      362.49608      1510.9234    
      7100   288.66622     -7156.9878     -5903.2988      353.03506     -5784.8194      28.443506      28.443506      28.443506     -172.11609      444.21537      787.00591    
      7200   305.20817     -7198.8392     -5873.3078     -452.688       -6025.9056      28.485538      28.485538      28.485538     -492.44956     -39.147573     -826.46686    
      7300   302.09121     -7182.9477     -5870.9534     -941.72639     -6188.7177      28.494967      28.494967      28.494967     -1655.7541     -380.54711     -788.878      
      7400   300.43755     -7175.8906     -5871.0782      437.41639     -5723.9098      28.467405      28.467405      28.467405      469.24467     -280.7673       1123.7718    
      7500   304.21384     -7188.3761     -5867.1632      656.88862     -5646.476       28.453551      28.453551      28.453551      490.79278      949.45058      530.4225     
      7600   293.86883     -7186.9493     -5910.6651     -225.93269     -5986.7687      28.478468      28.478468      28.478468     -231.62075     -208.01471     -238.16262    
      7700   296.28566     -7195.3713     -5908.5907     -37.133236     -5921.12        28.494631      28.494631      28.494631     -4.1026909      39.523092     -146.82011    
      7800   310.55863     -7229.7373     -5880.9687     -66.556345     -5903.4654      28.511378      28.511378      28.511378      287.14981     -709.57845      222.7596     
      7900   300.3182      -7214.0744     -5909.7804     -298.90055     -6011.0338      28.532224      28.532224      28.532224     -149.52548      109.08415     -856.26031    
      8000   291.69615     -7185.0254     -5918.1773      343.58247     -5801.5968      28.547821      28.547821      28.547821      249.29157     -197.47485      978.93069    
      8100   303.07904     -7184.9824     -5868.6979     -315.63204     -5975.9784      28.564145      28.564145      28.564145     -689.98474     -24.346946     -232.56445    
      8200   299.22567     -7125.2674     -5825.7183      200.4921      -5757.5408      28.568625      28.568625      28.568625      227.65654      100.75249      273.06728    
      8300   305.51299     -7106.6368     -5779.7816     -268.38487     -5871.1845      28.583056      28.583056      28.583056     -729.47792     -422.97473      347.29805    
      8400   309.5989      -7135.0291     -5790.4286     -217.97425     -5864.544       28.567743      28.567743      28.567743     -1221.2469     -485.02908      1052.3533    
      8500   297.46892     -7160.4883     -5868.5688     -384.04625     -5998.5496      28.523747      28.523747      28.523747     -612.52579     -11.512358     -528.10059    
      8600   292.88987     -7186.1669     -5914.1344      208.97962     -5843.7972      28.470932      28.470932      28.470932     -692.39107      480.05231      839.27763    
      8700   298.24996     -7219.1504     -5923.8388      606.08648     -5720.4416      28.443182      28.443182      28.443182      119.73032      333.41387      1365.1153    
      8800   302.59002     -7227.2257     -5913.065       179.01069     -5852.9908      28.443157      28.443157      28.443157      466.3182      -307.00347      377.71735    
      8900   295.4844      -7198.5314     -5915.2307      375.23324     -5789.0835      28.459908      28.459908      28.459908      182.39902      359.80428      583.4964     
      9000   301.75808     -7214.6377     -5904.0902      126.07522     -5861.504       28.504993      28.504993      28.504993      223.70316      130.60538      23.91711     
      9100   292.04008     -7185.92       -5917.5782     -64.235695     -5939.3932      28.556208      28.556208      28.556208     -257.2449       300.6207      -236.08289    
      9200   298.56652     -7218.4758     -5921.7893     -286.25287     -6019.3205      28.587262      28.587262      28.587262     -475.25859      333.63864     -717.13865    
      9300   296.51007     -7202.2757     -5914.5205     -241.10329     -5996.749       28.596601      28.596601      28.596601     -399.8749      -688.34095      364.90596    
      9400   302.10159     -7192.3613     -5880.322       29.361932     -5870.3237      28.581712      28.581712      28.581712      121.64585      480.54917     -514.10922    
      9500   297.67748     -7166.3708     -5873.5456      365.11839     -5749.5655      28.554906      28.554906      28.554906      493.07788      159.0798       443.1975     
      9600   298.02575     -7124.6255     -5830.2877     -399.63086     -5965.786       28.540812      28.540812      28.540812     -386.97718     -705.32168     -106.59371    
      9700   305.2803      -7111.3731     -5785.5285     -455.20413     -5939.3324      28.507672      28.507672      28.507672     -457.50486     -565.43519     -342.67234    
      9800   305.11756     -7112.6085     -5787.4707      774.55689     -5527.0987      28.459133      28.459133      28.459133      765.46154      732.78907      825.42007    
      9900   311.96451     -7172.0674     -5817.193       543.51281     -5634.9408      28.435597      28.435597      28.435597      844.82561      490.66281      295.05       
     10000   295.75486     -7180.9848     -5896.5096     -239.92683     -5977.0176      28.442089      28.442089      28.442089      524.86659      252.75725     -1497.4043    
     10100   293.60484     -7206.703      -5931.5653     -354.71656     -6050.4626      28.431829      28.431829      28.431829     -970.91867     -218.00446      124.77346    
     10200   302.90558     -7230.3629     -5914.8318      90.71668      -5884.5027      28.407434      28.407434      28.407434     -719.35831      984.39979      7.1085634    
     10300   301.89483     -7207.2047     -5896.0633      794.70814     -5630.3656      28.407613      28.407613      28.407613      945.8315       263.44222      1174.8507    
     10400   295.42981     -7161.1249     -5878.0613     -55.919811     -5896.8461      28.452584      28.452584      28.452584     -314.08737     -499.22699      645.55492    
     10500   295.86882     -7106.7178     -5821.7476     -291.92387     -5920.2532      28.495203      28.495203      28.495203     -228.76391     -241.81276     -405.19495    
     10600   310.18575     -7128.2743     -5781.1251      53.324        -5763.1247      28.498908      28.498908      28.498908     -123.88061      509.84284     -225.99022    
     10700   311.57829     -7178.3964     -5825.1993     -229.27778     -5902.4776      28.484364      28.484364      28.484364     -1141.9905     -153.98454      608.14172    
     10800   299.79365     -7160.5362     -5858.5203      511.1505      -5686.4897      28.470408      28.470408      28.470408     -312.47705      636.41971      1209.5088    
     10900   311.62629     -7213.0289     -5859.6234     -280.9751      -5954.1724      28.468927      28.468927      28.468927     -138.56399     -408.36855     -295.99275    
     11000   307.5684      -7243.469      -5907.687       277.44843     -5814.2271      28.478849      28.478849      28.478849      71.6891        248.79229      511.8639     
     11100   299.15635     -7237.1315     -5937.8834     -135.23213     -5983.6395      28.520979      28.520979      28.520979     -395.13207     -94.939453      84.375118    
     11200   282.56075     -7198.237      -5971.0644     -71.674876     -5995.4251      28.563788      28.563788      28.563788     -193.06193     -413.09935      391.13666    
     11300   289.06975     -7215.4389     -5959.9974     -743.33319     -6213.0693      28.579952      28.579952      28.579952     -743.31818     -658.66537     -828.01601    
     11400   306.4655      -7242.4403     -5911.4483     -255.15653     -5997.996       28.544623      28.544623      28.544623     -4.0806388     -533.85893     -227.53002    
     11500   297.19046     -7192.3313     -5901.6211      47.791953     -5885.5233      28.478173      28.478173      28.478173     -188.04671     -389.76097      721.18354    
     11600   290.21363     -7127.3185     -5866.909       875.57911     -5574.0367      28.412037      28.412037      28.412037      1592.9313      600.20923      433.59677    
     11700   301.82853     -7164.0506     -5853.1971      567.70729     -5663.8216      28.386236      28.386236      28.386236      967.73703     -64.910231      800.29507    
     11800   306.31469     -7201.1397     -5870.8027      804.9249      -5601.618       28.410116      28.410116      28.410116      1293.0201      352.32402      769.43057    
     11900   302.27025     -7190.3611     -5877.5893      675.59912     -5650.0999      28.475107      28.475107      28.475107      1338.8162      489.56784      198.41335    
     12000   304.22068     -7202.3561     -5881.1134     -559.13932     -6071.185       28.56541       28.56541       28.56541      -387.81761     -62.165309     -1227.435     
     12100   299.68489     -7194.0453     -5892.5018     -521.63054     -6070.775       28.616447      28.616447      28.616447     -663.11126     -1320.8916      419.11123    
     12200   287.96786     -7150.6963     -5900.0403     -179.79178     -5961.5008      28.618714      28.618714      28.618714      35.158011     -1025.6044      451.07102    
     12300   313.04439     -7204.7139     -5845.1495      371.50545     -5718.2646      28.610339      28.610339      28.610339      416.50181      704.07257     -6.0580168    
     12400   303.43665     -7153.1073     -5835.2697      237.45575     -5754.1805      28.608922      28.608922      28.608922     -147.87516      977.54331     -117.3009     
     12500   295.33611     -7142.3632     -5859.7066     -722.34522     -6106.2086      28.602232      28.602232      28.602232     -964.11605     -545.55767     -657.36193    
     12600   302.41575     -7187.7705     -5874.3668     -429.10186     -6020.2745      28.568058      28.568058      28.568058     -859.00378     -564.31522      136.01343    
     12700   311.7849      -7166.1494     -5812.0551      598.11529     -5609.6265      28.523556      28.523556      28.523556      533.58866      443.03901      817.71819    
     12800   302.7888      -7142.2606     -5827.2367      245.54286     -5744.2731      28.507652      28.507652      28.507652      910.89859     -178.04394      3.7739248    
     12900   295.21385     -7157.6954     -5875.5698     -108.50015     -5912.2603      28.515594      28.515594      28.515594     -521.06061     -111.62418      307.18435    
     13000   298.13587     -7179.0019     -5884.1858      241.22817     -5802.6033      28.516601      28.516601      28.516601      665.18265      36.015579      22.486275    
     13100   296.32379     -7172.4424     -5885.4962     -374.62772     -6012.2963      28.524272      28.524272      28.524272      185.55156      373.31059     -1682.7453    
     13200   298.53032     -7154.9648     -5858.4356     -146.09861     -5907.8541      28.518228      28.518228      28.518228     -766.29865      368.48637     -40.483564    
     13300   305.55039     -7127.68       -5800.6624      422.46424     -5657.9873      28.503231      28.503231      28.503231     -249.50447      1028.0457      488.85152    
     13400   305.29989     -7126.3995     -5800.4698      407.24762     -5662.8282      28.51052       28.51052       28.51052       473.16037      320.97441      427.60809    
     13500   300.24695     -7141.2366     -5837.252      -214.82227     -5910.018       28.531489      28.531489      28.531489     -210.91078     -569.36882      135.81279    
     13600   295.14837     -7154.2729     -5872.4316     -392.42893     -6005.4382      28.537244      28.537244      28.537244     -633.2716      -196.52829     -347.48691    
     13700   297.34241     -7160.906      -5869.536       72.381382     -5845.0377      28.524046      28.524046      28.524046     -120.75202     -236.1275       574.02367    
     13800   304.32403     -7171.2903     -5849.5988      23.802277     -5841.5473      28.518538      28.518538      28.518538     -328.63002     -85.671282      485.70813    
     13900   298.82352     -7123.3105     -5825.508      -166.97638     -5881.951       28.511925      28.511925      28.511925      194.63817     -520.61314     -174.95418    
     14000   310.14978     -7118.4407     -5771.4477      447.9822      -5620.2075      28.499912      28.499912      28.499912     -682.8076       694.52326      1332.2309    
     14100   300.20408     -7099.0935     -5795.2951      779.45873     -5531.79        28.512808      28.512808      28.512808      371.49909      685.0404       1281.8367    
     14200   308.36911     -7164.5444     -5825.285      -669.79115     -6053.1535      28.573032      28.573032      28.573032     -694.66843     -1179.8299     -134.87508    
     14300   293.88785     -7126.9129     -5850.5461     -763.73104     -6111.6247      28.618815      28.618815      28.618815     -1350.8387     -847.51132     -92.843063    
     14400   297.63631     -7114.2257     -5821.5793     -482.12194     -5986.4325      28.621224      28.621224      28.621224     -482.05355     -811.471       -152.84127    
     14500   300.06439     -7115.6304     -5812.4387     -15.210624     -5817.6246      28.593442      28.593442      28.593442     -481.1518       271.27356      164.24637    
     14600   301.23471     -7147.6372     -5839.3627      36.908382     -5826.8125      28.568227      28.568227      28.568227     -478.30832     -156.27748      745.31094    
     14700   300.24882     -7181.6653     -5877.6726      138.78668     -5830.4953      28.565136      28.565136      28.565136      194.44454     -698.19429      920.10977    
     14800   293.24637     -7190.181      -5916.6002     -256.31286     -6003.814       28.574563      28.574563      28.574563     -600.60134      579.52952     -747.86674    
     14900   293.74286     -7169.7025     -5893.9655     -132.8518      -5939.0923      28.558177      28.558177      28.558177     -566.95292     -796.11711      964.51462    
     15000   288.5248      -7134.8608     -5881.786       1156.2283     -5490.3588      28.526195      28.526195      28.526195      1274.5295      686.3461       1507.8093    
     15100   300.12055     -7182.2121     -5878.7764      914.71437     -5568.8459      28.53433       28.53433       28.53433       1300.892       309.90707      1133.3441    
     15200   306.40008     -7216.3197     -5885.6119     -194.70169     -5951.891       28.578779      28.578779      28.578779     -626.2735      -21.237929      63.406356    
     15300   292.4859      -7203.605      -5933.327      -802.9847      -6207.9318      28.622552      28.622552      28.622552     -1085.7659     -1268.7694     -54.418768    
     15400   291.79414     -7193.729      -5926.4553     -269.03096     -6018.4856      28.625361      28.625361      28.625361     -577.31787     -84.640003     -145.13502    
     15500   297.83008     -7189.7839     -5896.2959     -566.86927     -6089.7436      28.602341      28.602341      28.602341     -384.48175     -779.93302     -536.19304    
     15600   303.81427     -7182.8317     -5863.3541      455.02425     -5708.5647      28.572197      28.572197      28.572197      161.05636      469.27638      734.73999    
     15700   298.74441     -7147.6702     -5850.2112      344.22598     -5733.1635      28.568081      28.568081      28.568081      960.41551      101.16992     -28.907496    
     15800   307.78857     -7184.2382     -5847.5        -110.83425     -5885.2855      28.59291       28.59291       28.59291      -394.0615      -197.08899      258.64774    
     15900   312.0033      -7124.2523     -5769.2094      366.78124     -5643.5508      28.639782      28.639782      28.639782      342.46649      226.80866      531.06856    
     16000   304.75531     -7081.5536     -5757.989       329.96018     -5644.1718      28.704953      28.704953      28.704953     -185.56183      470.79479      704.6476     
     16100   300.20002     -7099.4392     -5795.6584     -1052.6582     -6161.5094      28.777097      28.777097      28.777097     -599.9653      -1181.9424     -1376.067     
     16200   296.18895     -7093.1445     -5806.784      -663.79986     -6037.6787      28.785049      28.785049      28.785049     -645.58872     -999.28401     -346.52686    
     16300   302.79407     -7106.668      -5791.6212      333.64892     -5676.0269      28.746849      28.746849      28.746849      1004.9407     -550.56604      546.5721     
     16400   298.25129     -7084.1212     -5788.8039      266.95138     -5696.4683      28.731196      28.731196      28.731196      693.91556     -423.18792      530.12649    
     16500   309.07558     -7123.024      -5780.6963      98.666181     -5746.5082      28.748167      28.748167      28.748167      433.40275     -226.39015      88.985943    
     16600   298.9564      -7086.8772     -5788.4975     -664.54504     -6019.267       28.769086      28.769086      28.769086     -954.80897     -770.56289     -268.26326    
     16700   294.86144     -7108.8871     -5828.292      -395.04051     -5965.1762      28.748283      28.748283      28.748283      102.55889     -1240.4367     -47.243695    
     16800   300.7118      -7165.69       -5859.6865     -331.76719     -5973.9655      28.691437      28.691437      28.691437     -286.34628     -515.78706     -193.16823    
     16900   295.13978     -7191.6122     -5909.8082      46.333783     -5893.988       28.607463      28.607463      28.607463      74.178688     -771.43396      836.25662    
     17000   296.39001     -7214.5229     -5927.2892     -172.32048     -5985.5813      28.518868      28.518868      28.518868      208.92396     -347.51368     -378.37172    
     17100   306.04494     -7230.1274     -5900.9619      545.8108      -5717.7162      28.447142      28.447142      28.447142      1321.9266      253.12247      62.383321    
     17200   301.17393     -7163.8522     -5855.8417      650.05783     -5637.9923      28.429956      28.429956      28.429956      960.58997      184.36266      805.22087    
     17300   313.13097     -7219.58       -5859.6396     -811.02584     -6131.8169      28.44333       28.44333       28.44333      -1097.8706     -1006.5858     -328.62113    
     17400   290.19874     -7186.1168     -5925.772       613.56026     -5720.0504      28.434714      28.434714      28.434714      464.33319      214.04305      1162.3045    
     17500   295.74204     -7207.4921     -5923.0725      224.06825     -5847.8931      28.441179      28.441179      28.441179      777.06818     -123.07675      18.213313    
     17600   294.62019     -7171.0408     -5891.4935     -286.46687     -5987.7151      28.451651      28.451651      28.451651     -1299.1713      1264.0404     -824.26971    
     17700   302.29982     -7177.3494     -5864.4491      143.59378     -5816.2339      28.448377      28.448377      28.448377     -447.43286     -324.72957      1202.9438    
     17800   308.03551     -7219.5631     -5881.7525     -28.732881     -5891.4         28.448064      28.448064      28.448064     -518.13911      541.66121     -109.72075    
     17900   300.01805     -7204.6381     -5901.6477      693.66642     -5668.3928      28.462172      28.462172      28.462172      697.08792      751.47286      632.43848    
     18000   296.9736      -7203.5306     -5913.7623     -409.12778     -6052.0273      28.509683      28.509683      28.509683     -386.18485      36.583502     -877.78199    
     18100   297.59353     -7189.389      -5896.9283     -696.80088     -6133.0683      28.536125      28.536125      28.536125     -1214.2358     -817.62303     -58.543784    
     18200   301.49927     -7186.0048     -5876.5814     -283.30465     -5972.399       28.517098      28.517098      28.517098     -342.25576      298.0618      -805.71998    
     18300   311.28306     -7167.3284     -5815.4135      254.27821     -5729.7486      28.479954      28.479954      28.479954      24.836991      31.177435      706.82019    
     18400   300.92248     -7148.6759     -5841.7575      208.19036     -5771.7056      28.468275      28.468275      28.468275      571.90136     -194.75132      247.42105    
     18500   297.28227     -7156.0533     -5864.9445     -511.4653      -6037.0426      28.468289      28.468289      28.468289     -489.06839     -550.85044     -494.47706    
     18600   295.19754     -7156.1255     -5874.0707      580.32159     -5679.1997      28.449035      28.449035      28.449035      705.89349      178.758        856.31328    
     18700   301.7302      -7171.0372     -5860.6108      147.61567     -5811.0842      28.440901      28.440901      28.440901      378.60132      191.47839     -127.2327     
     18800   292.85009     -7136.1526     -5864.2928      207.64268     -5794.6512      28.437552      28.437552      28.437552     -102.26721      168.66775      556.52749    
     18900   309.34014     -7176.862      -5833.3853      71.739212     -5809.2825      28.454114      28.454114      28.454114     -51.825715      464.33161     -197.28826    
     19000   299.56832     -7109.2844     -5808.2471     -231.01948     -5886.1005      28.482905      28.482905      28.482905      40.174779     -71.847        -661.38622    
     19100   314.51415     -7153.5915     -5787.644      -967.43162     -6113.704       28.483966      28.483966      28.483966     -815.46894     -1294.4757     -792.35019    
     19200   302.63851     -7128.5893     -5814.2181     -352.18407     -5932.3574      28.439131      28.439131      28.439131     -430.53243      126.04026     -752.06003    
     19300   294.53242     -7174.0479     -5894.8817     -114.20529     -5932.8896      28.364186      28.364186      28.364186      361.26196      4.9171272     -708.79495    
     19400   305.4178      -7234.2966     -5907.8548      774.17505     -5652.1093      28.294216      28.294216      28.294216      1041.864       747.79807      532.86303    
     19500   294.72468     -7191.6414     -5911.6403      535.77332     -5735.0335      28.273756      28.273756      28.273756      224.73764      1213.1266      169.45575    
     19600   303.55928     -7236.6157     -5918.2455      583.28318     -5725.7704      28.283928      28.283928      28.283928      584.57018      653.46709      511.81228    
     19700   287.13604     -7211.2409     -5964.1975      210.73164     -5894.3725      28.322732      28.322732      28.322732      495.08178     -417.08186      554.195      
     19800   293.65073     -7211.7538     -5936.4169     -232.75291     -6013.7993      28.354617      28.354617      28.354617     -1398.5673      483.25065      217.05792    
     19900   295.56757     -7156.354      -5872.6922      572.74792     -5681.8282      28.376675      28.376675      28.376675      1297.1162      1288.5932     -867.46559    
     20000   295.80257     -7140.6678     -5855.9853      1026.6595     -5512.0748      28.425912      28.425912      28.425912      845.02315      1164.0671      1070.8881    
     20100   305.11938     -7156.5256     -5831.3798     -505.51403     -6002.3144      28.515017      28.515017      28.515017      231.23631     -698.37604     -1049.4024    
     20200   290.12253     -7122.2177     -5862.2039     -796.16797     -6133.1268      28.57514       28.57514       28.57514      -939.41543     -612.36448     -836.72399    
     20300   294.12081     -7160.0247     -5882.6462     -468.77647     -6042.2351      28.579439      28.579439      28.579439     -410.97087     -169.78796     -825.57058    
     20400   305.95211     -7156.9037     -5828.1414     -1053.3315     -6184.9944      28.533135      28.533135      28.533135     -1579.7425     -548.57008     -1031.6818    
     20500   309.06813     -7159.0883     -5816.793       269.799       -5726.188       28.449763      28.449763      28.449763      896.38865      392.63732     -479.62895    
     20600   302.46022     -7181.6202     -5868.0233      142.5128      -5820.4568      28.391628      28.391628      28.391628     -378.62407     -508.73736      1314.8998    
     20700   296.79724     -7209.2213     -5920.2189      1242.1684     -5506.9678      28.360849      28.360849      28.360849      696.95486      1643.3946      1386.1556    
     20800   305.37117     -7263.3148     -5937.0755      232.77119     -5859.5241      28.374496      28.374496      28.374496      734.04872     -81.224902      45.489738    
     20900   297.94685     -7227.5991     -5933.6039     -183.25411     -5994.8629      28.406215      28.406215      28.406215     -494.01071     -591.34798      535.59635    
     21000   301.27753     -7207.3975     -5898.9371      86.713529     -5869.8712      28.43196       28.43196       28.43196       923.28262     -202.76231     -460.37972    
     21100   300.53397     -7173.7783     -5868.5472     -436.0137      -6015.0575      28.455357      28.455357      28.455357     -1406.0207      110.56564     -12.586034    
     21200   307.11109     -7158.1493     -5824.3535      35.291294     -5812.4907      28.458616      28.458616      28.458616      170.82156     -128.39046      63.44278     
     21300   307.85568     -7151.2346     -5814.2051     -17.687925     -5820.1593      28.472476      28.472476      28.472476     -71.457503     -365.45221      383.84594    
     21400   305.42313     -7177.4226     -5850.9577     -683.14389     -6081.4226      28.493049      28.493049      28.493049     -1845.994      -172.7427      -30.694952    
     21500   297.65397     -7198.6974     -5905.9743     -72.989543     -5930.5783      28.485467      28.485467      28.485467     -471.93547      270.38012     -17.413288    
     21600   300.11045     -7218.0099     -5914.6181     -356.04796     -6034.4587      28.471248      28.471248      28.471248     -254.04504     -279.41166     -534.6872     
     21700   299.71296     -7222.7112     -5921.0458      231.14126     -5843.4154      28.450687      28.450687      28.450687      305.78058      356.20287      31.44034     
     21800   310.51825     -7213.674      -5865.0808     -266.37932     -5954.4322      28.43861       28.43861       28.43861      -31.576888     -132.02302     -635.53805    
     21900   308.26592     -7193.6214     -5854.8101     -114.15519     -5893.0391      28.423243      28.423243      28.423243      586.37778     -413.98219     -514.86116    
     22000   298.60559     -7192.4461     -5895.59        427.06441     -5752.8631      28.403956      28.403956      28.403956     -17.658746      796.69613      502.15585    
     22100   300.27724     -7261.4888     -5957.3727     -239.23782     -6037.2716      28.397385      28.397385      28.397385      282.49405     -207.72693     -792.48057    
     22200   292.23417     -7236.9938     -5967.8091     -214.50725     -6039.3718      28.387231      28.387231      28.387231     -125.72258     -515.4905      -2.30869      
     22300   298.30033     -7232.9247     -5937.3943      490.91529     -5773.7846      28.377591      28.377591      28.377591      503.21027      1172.0761     -202.54052    
     22400   299.52128     -7215.6149     -5914.7819      163.497       -5860.2519      28.384636      28.384636      28.384636      486.99454     -343.11738      346.61384    
     22500   300.53457     -7191.6275     -5886.3937      399.03003     -5753.2096      28.391632      28.391632      28.391632      1161.5463     -117.07524      152.61897    
     22600   314.02588     -7180.5498     -5816.7228      95.544703     -5784.7605      28.413093      28.413093      28.413093      278.64706      25.961889     -17.97484     
     22700   305.52281     -7120.6702     -5793.7724      265.44107     -5704.6197      28.450954      28.450954      28.450954      757.66755     -102.34209      140.99775    
     22800   306.6481      -7140.8281     -5809.0431     -184.2461      -5871.2794      28.505154      28.505154      28.505154     -250.89314     -219.25002     -82.595148    
     22900   288.27743     -7108.0418     -5856.0413     -563.88375     -6047.2678      28.542644      28.542644      28.542644     -400.49082     -525.44535     -765.71509    
     23000   287.82448     -7090.1335     -5840.1003     -1145.776      -6227.5418      28.515229      28.515229      28.515229     -2126.4763      64.188948     -1375.0408    
     23100   310.21927     -7158.647      -5811.3522      307.3875      -5708.3402      28.429896      28.429896      28.429896      206.21441      596.02565      119.92246    
     23200   309.88618     -7187.6916     -5841.8434      223.70529     -5767.43        28.359578      28.359578      28.359578     -133.08196     -274.25528      1078.4531    
     23300   303.22675     -7213.8996     -5896.9736      551.18182     -5714.1155      28.33443       28.33443       28.33443       116.05947      1427.0546      110.43144    
     23400   296.95731     -7215.8631     -5926.1656     -530.23032     -6102.4141      28.352741      28.352741      28.352741     -108.2041      -450.31444     -1032.1724    
     23500   297.35463     -7195.9089     -5904.4857      498.12522     -5738.7608      28.361192      28.361192      28.361192      844.99696      476.41509      172.96361    
     23600   303.5313      -7220.0947     -5901.846       98.124699     -5869.1038      28.389067      28.389067      28.389067      233.24637     -396.63509      457.76282    
     23700   298.73237     -7169.6262     -5872.2195     -156.6668      -5924.7379      28.43279       28.43279       28.43279      -638.37378      422.3246      -253.95123    
     23800   302.31403     -7146.9417     -5833.9797     -186.12616     -5896.5784      28.463873      28.463873      28.463873      208.74974     -205.23991     -561.88832    
     23900   287.8519      -7079.8716     -5829.7192      139.5297      -5782.794       28.463476      28.463476      28.463476      406.18782      678.46335     -666.06207    
     24000   309.66354     -7183.7793     -5838.898      -571.409       -6030.8397      28.45217       28.45217       28.45217      -85.425798     -510.30811     -1118.4931    
     24100   305.18306     -7208.5332     -5883.1109     -358.21324     -6002.993       28.417047      28.417047      28.417047     -186.21373     -594.50777     -293.91823    
     24200   292.82838     -7180.5452     -5908.7798      475.5128      -5750.5714      28.361584      28.361584      28.361584      415.68802     -146.52512      1157.3755    
     24300   303.24162     -7217.468      -5900.4774      218.26042     -5828.1429      28.324667      28.324667      28.324667      39.204671      334.3004       281.27619    
     24400   297.99761     -7212.2242     -5918.0085      795.8917      -5654.3285      28.321469      28.321469      28.321469      1300.9631      915.78207      170.92992    
     24500   292.89897     -7196.3147     -5924.2427     -263.35168     -6011.8283      28.357873      28.357873      28.357873     -989.16995      245.60699     -46.492077    
     24600   293.7715      -7192.9545     -5917.0931     -166.25523     -5972.4628      28.370945      28.370945      28.370945     -8.9112106     -123.58374     -366.27075    
     24700   301.49046     -7201.1141     -5891.7289     -44.596943     -5906.5845      28.372864      28.372864      28.372864     -425.20199      363.15305     -71.741883    
     24800   299.77832     -7179.8655     -5877.9162     -461.87329     -6031.8097      28.3753        28.3753        28.3753       -345.78436     -573.63564     -466.19987    
     24900   299.27938     -7219.4093     -5919.6269     -739.37472     -6165.4521      28.354935      28.354935      28.354935     -901.29015     -940.11484     -376.71917    
     25000   295.22653     -7255.3107     -5973.13       -551.78396     -6155.4591      28.296779      28.296779      28.296779     -778.82957     -312.90117     -563.62115    
     25100   304.51559     -7269.3112     -5946.7877     -230.50704     -6022.2362      28.207424      28.207424      28.207424     -500.67101     -224.74971      33.89959     
     25200   305.62378     -7261.2351     -5933.8987      947.95966     -5626.2061      28.128751      28.128751      28.128751      1251.7627      805.60222      786.51407    
     25300   292.90496     -7251.1566     -5979.0585      701.9206      -5751.7189      28.108464      28.108464      28.108464      1281.7514      713.12721      110.8832     
     25400   287.24102     -7271.4711     -6023.9718      361.06154     -5906.9027      28.118688      28.118688      28.118688      127.72039     -140.88169      1096.3459    
     25500   290.46616     -7323.1137     -6061.6075      219.15254     -5990.386       28.140344      28.140344      28.140344      772.81305      16.158311     -131.51372    
     25600   294.44989     -7303.272      -6024.4643      144.62799     -5977.3401      28.164699      28.164699      28.164699      88.387784      446.39689     -100.90069    
     25700   296.78013     -7252.0074     -5963.0793      696.82513     -5735.1807      28.199884      28.199884      28.199884      591.34273      909.84897      589.28367    
     25800   305.10816     -7250.005      -5924.908       377.3787      -5800.6461      28.263645      28.263645      28.263645      360.69904      395.31536      376.12169    
     25900   304.34031     -7217.036      -5895.2738     -545.51276     -6076.4151      28.342981      28.342981      28.342981     -0.58955084    -262.18716     -1373.7616    
     26000   296.67605     -7213.9479     -5925.4719     -65.042367     -5947.16        28.382463      28.382463      28.382463     -221.65205     -59.381289      85.906241    
     26100   286.38383     -7211.5383     -5967.7618     -582.49851     -6162.0455      28.384978      28.384978      28.384978     -1079.7189     -52.958693     -614.81793    
     26200   294.5855      -7245.7909     -5966.3942     -941.94472     -6279.4063      28.350013      28.350013      28.350013     -250.03172     -1357.6972     -1218.1052    
     26300   294.94161     -7215.7754     -5934.8321      201.71676     -5868.226       28.289946      28.289946      28.289946      386.78216      181.04496      37.323166    
     26400   296.47064     -7195.5757     -5907.9918      108.72379     -5872.2775      28.241036      28.241036      28.241036     -264.52528      719.41847     -128.72183    
     26500   304.01073     -7194.8864     -5874.5556      465.35094     -5722.184       28.210828      28.210828      28.210828      862.19315      196.87994      336.97974    
     26600   300.62251     -7177.6187     -5872.0031      1177.5802     -5485.9859      28.221498      28.221498      28.221498      1075.5019      1426.658       1030.5809    
     26700   305.29083     -7182.3099     -5856.4195      199.68727     -5790.552       28.280146      28.280146      28.280146      422.7495       242.92328     -66.610979    
     26800   297.89278     -7172.9756     -5879.2152     -1048.538      -6227.0634      28.33413       28.33413       28.33413      -407.10126     -1066.2307     -1672.282     
     26900   293.87663     -7176.8621     -5900.5441     -535.93539     -6078.4961      28.342502      28.342502      28.342502     -759.29659     -354.24503     -494.26454    
     27000   297.18134     -7155.9234     -5865.2529      629.88456     -5656.4112      28.328709      28.328709      28.328709      651.5884       515.04096      723.02434    
     27100   306.19137     -7144.1403     -5814.3389     -333.56445     -5924.9756      28.332264      28.332264      28.332264      555.93712      208.52685     -1765.1573    
     27200   297.99143     -7097.966      -5803.7772     -81.366158     -5830.7518      28.327732      28.327732      28.327732      597.85557     -863.63638      21.682338    
     27300   303.97213     -7127.1394     -5806.9762     -74.706763     -5831.7244      28.320622      28.320622      28.320622     -195.50181     -10.893625     -17.724852    
     27400   292.66236     -7142.5866     -5871.5421     -195.46885     -5936.2352      28.311839      28.311839      28.311839     -156.92872     -495.72873      66.250906    
     27500   295.80974     -7216.0832     -5931.3696     -541.43378     -6110.0107      28.282644      28.282644      28.282644     -140.31695     -660.30597     -823.67843    
     27600   292.21946     -7195.4524     -5926.3316      325.42081     -5819.5333      28.232394      28.232394      28.232394      729.10816      274.23696     -27.08268     
     27700   311.37226     -7222.7195     -5870.4173      373.60439     -5748.2295      28.199839      28.199839      28.199839      375.56379      891.25047     -146.00109    
     27800   306.12021     -7185.6722     -5856.1798      656.03165     -5641.1047      28.222564      28.222564      28.222564      161.79842      766.71432      1039.5822    
     27900   294.85168     -7146.4133     -5865.8606     -428.09416     -6007.2927      28.295084      28.295084      28.295084     -556.93419     -263.12938     -464.21892    
     28000   297.69881     -7134.7603     -5841.8424     -500.76126     -6008.0056      28.336276      28.336276      28.336276      93.955781     -1086.7756     -509.46399    
     28100   301.83848     -7106.3099     -5795.4132     -287.771       -5890.895       28.335606      28.335606      28.335606     -674.47742      250.05018     -438.88576    
     28200   304.22504     -7086.1717     -5764.9101      283.12602     -5671.0143      28.331107      28.331107      28.331107     -206.5886       134.0081       921.95856    
     28300   304.0824      -7113.6486     -5793.0065     -710.39494     -6028.7193      28.335822      28.335822      28.335822     -327.43197     -940.64005     -863.11278    
     28400   303.6685      -7138.4385     -5819.594      -379.35166     -5945.2292      28.318126      28.318126      28.318126     -603.69729      812.26804     -1346.6257    
     28500   301.31853     -7139.9628     -5831.3243      523.6956      -5658.3824      28.29101       28.29101       28.29101       1105.6177      91.926976      373.54215    
     28600   307.19423     -7161.616      -5827.4591     -64.682293     -5848.8021      28.283416      28.283416      28.283416     -122.25451      428.22276     -500.01512    
     28700   307.41504     -7167.2225     -5832.1067      156.35627     -5780.4529      28.294603      28.294603      28.294603     -277.83721      349.13193      397.77408    
     28800   298.32735     -7199.2017     -5903.554       246.89907     -5821.7799      28.318708      28.318708      28.318708     -0.068657614    657.24201      83.523856    
     28900   300.56952     -7218.6512     -5913.2657     -171.77563     -5970.3766      28.354835      28.354835      28.354835      983.91628     -353.85514     -1145.388     
     29000   302.97143     -7221.3921     -5905.575      -409.09561     -6042.027       28.385269      28.385269      28.385269     -388.98668     -742.26771     -96.032442    
     29100   295.30993     -7193.3026     -5910.7597      68.21946      -5887.9439      28.4108        28.4108        28.4108        172.41115      146.42373     -114.1765     
     29200   292.64791     -7206.5405     -5935.5589      274.04476     -5843.6862      28.433459      28.433459      28.433459      98.51525       176.49519      547.12385    
     29300   291.66136     -7203.6954     -5936.9984     -514.81589     -6110.0573      28.459157      28.459157      28.459157     -1169.6393      78.337567     -453.14595    
     29400   305.192       -7218.5403     -5893.0792     -9.2494053     -5896.1913      28.468034      28.468034      28.468034      286.63826     -475.66755      161.28107    
     29500   305.67554     -7176.2429     -5848.6817     -120.68889     -5889.3456      28.481007      28.481007      28.481007     -627.58666      385.65194     -120.13196    
     29600   309.45068     -7215.0602     -5871.1035     -287.72446     -5968.1982      28.49581       28.49581       28.49581      -209.8449      -13.22183      -640.10665    
     29700   289.52491     -7161.1921     -5903.7737     -184.85422     -5966.2945      28.51717       28.51717       28.51717       517.0229      -544.6891      -526.89645    
     29800   304.21011     -7167.9329     -5846.7361     -319.08195     -5954.7874      28.528823      28.528823      28.528823      504.21397     -412.3979      -1049.0619    
     29900   298.24606     -7104.4256     -5809.131       100.02389     -5775.2585      28.529164      28.529164      28.529164      118.69229      80.968663      100.41071    
     30000   306.39572     -7133.2591     -5802.5701     -479.67862     -5964.8293      28.518565      28.518565      28.518565      152.69581     -435.28865     -1156.443     
     30100   288.602       -7105.4083     -5851.9982      641.41286     -5635.7777      28.48576       28.48576       28.48576       286.43091      1218.5996      419.20805    
     30200   299.73407     -7181.325      -5879.5678      58.149069     -5859.9906      28.473736      28.473736      28.473736     -183.47276      645.38906     -287.4691     
     30300   294.21802     -7189.9635     -5912.1628     -124.90258     -5954.1875      28.467716      28.467716      28.467716      438.84195     -291.70668     -521.84301    
     30400   291.53566     -7216.8738     -5950.7227      26.906527     -5941.6809      28.455999      28.455999      28.455999      854.29693     -367.75101     -405.82634    
     30500   293.65485     -7206.6238     -5931.2689      893.99969     -5630.8796      28.454902      28.454902      28.454902      760.89059      1072.0232      849.08532    
     30600   310.24005     -7231.1189     -5883.7339      153.04645     -5832.1123      28.491206      28.491206      28.491206     -330.9218       597.12591      192.93526    
     30700   295.63798     -7193.2064     -5909.2388     -211.72991     -5981.0238      28.540301      28.540301      28.540301      263.88177     -801.99903     -97.072452    
     30800   290.71907     -7185.3564     -5922.7518     -486.11635     -6088.0794      28.569966      28.569966      28.569966     -668.85723     -454.62099     -334.87083    
     30900   309.66116     -7217.0428     -5872.172       168.20937     -5815.0002      28.563962      28.563962      28.563962      387.35479     -336.90525      454.17858    
     31000   301.76511     -7167.579      -5857.001       225.35133     -5780.5565      28.545432      28.545432      28.545432     -263.33916      132.37862      807.01454    
     31100   295.31513     -7171.8447     -5889.2792      466.66855     -5731.3123      28.525103      28.525103      28.525103     -326.78404      1088.3843      638.40534    
     31200   286.90438     -7167.4419     -5921.4046     -494.42781     -6088.4542      28.507264      28.507264      28.507264     -276.84166     -636.06299     -570.37877    
     31300   308.05024     -7231.6061     -5893.7315     -155.68951     -5946.105       28.465927      28.465927      28.465927     -30.450971     -70.153278     -366.46428    
     31400   302.83378     -7204.7985     -5889.5792      181.00271     -5828.9153      28.430838      28.430838      28.430838     -813.18535      687.95567      668.23781    
     31500   294.91915     -7187.1196     -5906.2739     -344.71677     -6021.5655      28.410998      28.410998      28.410998     -1008.3447      254.79176     -280.59734    
     31600   304.77367     -7211.6081     -5887.9638     -36.191781     -5900.0338      28.384072      28.384072      28.384072      378.68567      286.55079     -773.8118     
     31700   303.49331     -7169.4732     -5851.3895      560.36939     -5665.0475      28.356553      28.356553      28.356553      1322.4382      172.13877      186.53121    
     31800   317.96017     -7202.8022     -5821.8884      69.729306     -5798.708       28.353711      28.353711      28.353711     -476.84052      250.6931       435.33534    
     31900   299.50143     -7208.5895     -5907.8427      264.99303     -5819.5975      28.37006       28.37006       28.37006      -346.47638     -3.7987959      1145.2542    
     32000   294.84617     -7204.3999     -5923.8711      422.66543     -5782.6637      28.400653      28.400653      28.400653      938.62603      460.27461     -130.90435    
     32100   292.55709     -7180.7881     -5910.2009     -329.53234     -6020.9195      28.454367      28.454367      28.454367     -570.04324      505.18687     -923.74066    
     32200   308.82117     -7186.749      -5845.5263     -705.58223     -6083.5919      28.494283      28.494283      28.494283     -197.82668     -667.8314      -1251.0886    
     32300   312.42976     -7167.541      -5810.6459     -341.54077     -5925.9106      28.49657       28.49657       28.49657      -396.27447     -383.15588     -245.19196    
     32400   291.86034     -7099.3276     -5831.7664      153.89926     -5779.8592      28.490837      28.490837      28.490837      324.33159     -572.80238      710.16857    
     32500   310.71939     -7175.1841     -5825.7173     -287.47641     -5922.5338      28.476753      28.476753      28.476753      37.414353     -601.54124     -298.30233    
     32600   305.64692     -7194.4539     -5867.0171     -164.37022     -5922.2204      28.450416      28.450416      28.450416     -292.51805      308.51383     -509.10643    
     32700   305.89825     -7233.8868     -5905.3584     -243.62661     -5986.9466      28.423378      28.423378      28.423378     -69.632669      439.67298     -1100.9201    
     32800   294.69727     -7210.0392     -5930.1571     -97.618046     -5962.7283      28.388503      28.388503      28.388503     -533.92557     -41.490654      282.56209    
     32900   304.4061      -7243.6702     -5921.6222      216.32876     -5849.5914      28.368917      28.368917      28.368917      353.48403      479.00916     -183.50691    
     33000   318.60302     -7244.6009     -5860.8952      386.25989     -5731.8771      28.398692      28.398692      28.398692      197.92846      799.0757       161.77553    
     33100   305.65325     -7190.1669     -5862.7026     -118.48757     -5902.5851      28.471551      28.471551      28.471551      669.16934     -100.98487     -923.64718    
     33200   297.03273     -7175.6189     -5885.5938     -553.51806     -6073.3817      28.54653       28.54653       28.54653      -80.690417     -496.39239     -1083.4714    
     33300   290.99007     -7171.1582     -5907.3766     -673.03325     -6135.9069      28.55467       28.55467       28.55467      -415.08637     -712.01175     -892.00165    
     33400   288.70026     -7167.2083     -5913.3715     -67.022794     -5935.9921      28.497188      28.497188      28.497188     -471.2203      -208.57552      478.72744    
     33500   299.13781     -7184.4898     -5885.3223     -105.95997     -5920.7952      28.420169      28.420169      28.420169      81.640143     -922.80926      523.28922    
     33600   300.21732     -7195.6125     -5891.7566      476.63144     -5733.4471      28.345413      28.345413      28.345413      480.50383      831.51577      117.87472    
     33700   290.43411     -7201.8401     -5940.4731     -67.13922      -5962.6237      28.282055      28.282055      28.282055     -615.55766      324.91554      89.224457    
     33800   296.78095     -7234.6459     -5945.7143      1220.0827     -5545.7148      28.222671      28.222671      28.222671      1450.0445      1218.5009      991.70271    
     33900   315.27264     -7237.1983     -5867.9565      1527.7873     -5367.0432      28.223309      28.223309      28.223309      1528.0855      791.93525      2263.3411    
     34000   308.80244     -7211.5446     -5870.4032      495.15856     -5706.4875      28.313929      28.313929      28.313929      252.76478      738.84897      493.86194    
     34100   289.1877      -7174.4892     -5918.5353     -619.77517     -6126.0608      28.421946      28.421946      28.421946     -380.53067     -909.41281     -569.38202    
     34200   301.67549     -7213.0424     -5902.8536     -461.76963     -6058.2755      28.471058      28.471058      28.471058     -1276.6467     -258.52557      149.86343    
     34300   294.55526     -7172.0967     -5892.8314     -354.82923     -6012.3148      28.475458      28.475458      28.475458     -556.00701     -698.35232      189.87165    
     34400   307.85126     -7189.336      -5852.3256     -114.23808     -5890.6761      28.446439      28.446439      28.446439     -261.81654      397.74404     -478.64174    
     34500   305.15921     -7172.6176     -5847.2989     -356.44391     -5966.4934      28.409468      28.409468      28.409468     -783.22123      69.241314     -355.3518     
     34600   301.02472     -7224.8202     -5917.4577      6.9390688     -5915.1493      28.360533      28.360533      28.360533     -161.72381      169.91608      12.62494     
     34700   299.73568     -7272.5819     -5970.8178      649.07467     -5756.1488      28.305202      28.305202      28.305202      885.03738      606.2433       455.94333    
     34800   299.97831     -7273.9168     -5971.0989      559.33332     -5786.3759      28.291644      28.291644      28.291644      343.01387      742.65352      592.33258    
     34900   300.88385     -7267.4753     -5960.7246      889.60603     -5666.2359      28.313812      28.313812      28.313812      770.65921      1454.8318      443.32712    
     35000   289.06508     -7254.2276     -5998.8063      91.979612     -5968.1425      28.380476      28.380476      28.380476      42.70469       597.93847     -364.70432    
     35100   295.84892     -7305.5608     -6020.6771     -844.56987     -6303.8093      28.433212      28.433212      28.433212     -489.6352      -838.2032      -1205.8712    
     35200   299.02342     -7317.9497     -6019.2789     -599.69338     -6220.2862      28.431659      28.431659      28.431659     -897.86283     -741.00495     -160.21236    
     35300   291.41623     -7243.5388     -5977.9064      303.47576     -5876.4631      28.405854      28.405854      28.405854      254.43167      692.26034     -36.264716    
     35400   295.78087     -7244.343      -5959.7547      848.08482     -5676.6281      28.39369       28.39369       28.39369       808.19257      1013.6407      722.42121    
     35500   301.54954     -7222.2587     -5912.6169      78.132512     -5886.5001      28.40562       28.40562       28.40562       106.15288     -47.231796      175.47645    
     35600   306.4545      -7214.3211     -5883.3769      10.911339     -5879.7225      28.424128      28.424128      28.424128     -386.32701      477.06517     -58.004143    
     35700   306.08391     -7200.714      -5871.3793     -560.80928     -6059.25        28.426453      28.426453      28.426453     -489.35504     -508.13585     -684.93695    
     35800   291.61678     -7214.8647     -5948.3612     -586.80353     -6144.171       28.389334      28.389334      28.389334     -636.57078     -525.70884     -598.13097    
     35900   294.07924     -7264.0852     -5986.8872      219.93339     -5913.9648      28.329007      28.329007      28.329007      174.82059     -252.23547      737.21506    
     36000   296.02926     -7281.2599     -5995.5929      518.30414     -5824.3173      28.297301      28.297301      28.297301      575.25217      119.72538      859.93486    
     36100   297.38738     -7315.1286     -6023.5633     -14.095424     -6028.2207      28.296494      28.296494      28.296494      24.340507     -188.47921      121.85243    
     36200   286.52976     -7302.655      -6058.2448     -92.631815     -6088.8805      28.305069      28.305069      28.305069     -637.80221      302.41054      57.496226    
     36300   298.72767     -7309.3232     -6011.9369     -225.93506     -6086.6868      28.308505      28.308505      28.308505     -233.37034      141.36149     -585.79633    
     36400   292.69379     -7243.1403     -5971.9594     -54.432327     -5989.9329      28.290035      28.290035      28.290035     -639.37059     -160.03768      636.11129    
     36500   300.72721     -7234.8331     -5928.7627      206.10643     -5860.9811      28.251929      28.251929      28.251929      561.09255      515.60406     -458.37733    
     36600   301.79711     -7219.7298     -5909.0128      216.45683     -5837.925       28.238993      28.238993      28.238993      481.30567      135.38616      32.678648    
     36700   296.43194     -7198.9451     -5911.5292     -180.19088     -5970.7739      28.249686      28.249686      28.249686     -447.13803      220.46514     -313.89975    
     36800   298.55576     -7225.5187     -5928.879      -455.21047     -6078.6089      28.253576      28.253576      28.253576     -882.47583     -475.07945     -8.0761236    
     36900   300.66748     -7285.1561     -5979.3451      206.94952     -5911.3433      28.244035      28.244035      28.244035     -234.70678      758.41145      97.143877    
     37000   307.92564     -7312.7678     -5975.4344      588.24609     -5781.8052      28.26042       28.26042       28.26042       1511.0278      784.13815     -530.4277     
     37100   287.09685     -7259.2066     -6012.3334     -2.3845745     -6013.1228      28.313984      28.313984      28.313984     -31.966245      1093.6008     -1068.7883    
     37200   300.39842     -7320.4809     -6015.8385     -267.95757     -6105.188       28.382464      28.382464      28.382464     -788.10936     -440.23333      424.46999    
     37300   294.73189     -7275.7742     -5995.7418     -488.11492     -6159.4812      28.439266      28.439266      28.439266     -181.6453      -648.55789     -634.14158    
     37400   296.26964     -7217.4092     -5930.6982     -419.22437     -6071.5332      28.453084      28.453084      28.453084     -376.86878     -239.00886     -641.79547    
     37500   300.06208     -7195.8927     -5892.711      -106.64123     -5928.4529      28.43101       28.43101       28.43101       571.8859      -244.98633     -646.82324    
     37600   297.82843     -7191.8008     -5898.3199      313.0208      -5793.6435      28.409691      28.409691      28.409691     -95.235912      1552.904      -518.60568    
     37700   295.28279     -7185.5725     -5903.1474     -107.33756     -5939.0072      28.400556      28.400556      28.400556     -463.65657     -616.4135       758.05739    
     37800   303.54025     -7192.1378     -5873.8503      29.137226     -5864.1374      28.379752      28.379752      28.379752     -572.10169      216.94293      442.57044    
     37900   304.99089     -7164.9967     -5840.409       188.47464     -5777.7002      28.36177       28.36177       28.36177       113.88729      389.0512       62.485426    
     38000   310.90555     -7203.6813     -5853.4061      116.24469     -5814.7493      28.356906      28.356906      28.356906      554.24504      613.70847     -819.21944    
     38100   295.72872     -7205.7795     -5921.4178      503.66531     -5753.8538      28.360956      28.360956      28.360956      667.96162      775.31935      67.714965    
     38200   300.74575     -7242.6616     -5936.5107      4.4880665     -5935.0142      28.381782      28.381782      28.381782      742.33114      240.90604     -969.77298    
     38300   302.35946     -7269.519      -5956.3597     -141.06027     -6003.4711      28.397609      28.397609      28.397609      76.107778      155.7458      -655.0344     
     38400   293.96578     -7262.5407     -5985.8355     -126.09154     -6027.9623      28.400918      28.400918      28.400918      242.82139     -324.29833     -296.7977     
     38500   292.17709     -7253.1397     -5984.2028      514.23681     -5812.4218      28.399585      28.399585      28.399585      611.50887      771.83021      159.37135    
     38600   304.39503     -7229.7509     -5907.751       832.86135     -5628.7337      28.42677       28.42677       28.42677       290.13622      1337.079       871.36881    
     38700   298.62153     -7178.769      -5881.8437      324.07129     -5772.5941      28.486198      28.486198      28.486198      758.22259      64.806446      149.18485    
     38800   303.66161     -7176.9702     -5858.1556     -157.5912      -5911.6494      28.55168       28.55168       28.55168       345.66601      63.439192     -881.87879    
     38900   299.80963     -7182.2713     -5880.186      -460.74771     -6037.5063      28.607634      28.607634      28.607634     -291.81038     -20.332858     -1070.0999    
     39000   296.03737     -7221.4992     -5935.797      -930.03369     -6253.9952      28.626907      28.626907      28.626907     -748.93632     -1428.9184     -612.24632    
     39100   293.78834     -7235.0598     -5959.1253     -724.32019     -6206.1203      28.595251      28.595251      28.595251     -286.87606     -345.11856     -1540.966     
     39200   304.23737     -7231.0511     -5909.7359      39.754085     -5896.2599      28.538762      28.538762      28.538762      431.89169     -611.78372      299.15429    
     39300   305.43177     -7192.4651     -5865.9626      14.379965     -5861.1137      28.488406      28.488406      28.488406     -205.23382     -305.50988      553.88359    
     39400   305.75789     -7200.184      -5872.2652      651.29257     -5653.5693      28.448726      28.448726      28.448726      573.55679      315.9042       1064.4167    
     39500   296.86693     -7193.0689     -5903.7639     -342.15326     -6018.698       28.452308      28.452308      28.452308     -175.66321     -506.15177     -344.64479    
     39600   305.15738     -7228.3592     -5903.0484     -167.85833     -5959.4747      28.459079      28.459079      28.459079     -120.92001     -745.84605      363.19107    
     39700   294.1132      -7189.4786     -5912.1331     -462.84637     -6067.5388      28.447981      28.447981      28.447981     -1011.9021     -275.31781     -101.31917    
     39800   296.36817     -7179.8953     -5892.7564     -520.09599     -6066.4671      28.398085      28.398085      28.398085     -320.4732      -300.92318     -938.89158    
     39900   303.18088     -7192.5867     -5875.8599      229.8786      -5799.7124      28.320035      28.320035      28.320035      232.6176      -349.70251      806.72072    
     40000   314.11223     -7244.9862     -5880.7842      1067.8301     -5528.5922      28.279203      28.279203      28.279203      1224.1282      519.73806      1459.6239    
     40100   298.92391     -7226.8873     -5928.6488      809.84718     -5660.7123      28.30855       28.30855       28.30855       1008.0508      690.03244      731.45834    
     40200   296.81276     -7239.7276     -5950.6578      900.13921     -5650.3317      28.388068      28.388068      28.388068      581.78891      1332.4377      786.19107    
     40300   300.28267     -7236.7501     -5932.6103     -1460.6163     -6425.1909      28.489736      28.489736      28.489736     -1266.4904     -1825.4297     -1289.9287    
     40400   294.3655      -7197.0731     -5918.6319     -585.01934     -6116.6642      28.525285      28.525285      28.525285     -19.489152     -482.03295     -1253.5359    
     40500   306.58946     -7173.554      -5842.0236      62.536979     -5820.8855      28.511361      28.511361      28.511361     -312.01316     -218.05925      717.68335    
     40600   303.5883      -7149.7832     -5831.287      -202.76452     -5899.7475      28.50082       28.50082       28.50082      -396.78182     -200.05211     -11.45965     
     40700   299.56581     -7165.1541     -5864.1277     -232.49733     -5942.5005      28.4855        28.4855        28.4855        436.00913     -5.2424183     -1128.2587    
     40800   294.08308     -7204.4004     -5927.1858     -62.320091     -5948.1253      28.454724      28.454724      28.454724      543.53571     -373.86578     -356.6302     
     40900   296.03144     -7201.4468     -5915.7703      488.17699     -5752.2569      28.424974      28.424974      28.424974      1010.1218     -36.369501      490.77871    
     41000   306.97355     -7187.5561     -5854.3577      527.77511     -5677.6731      28.420035      28.420035      28.420035      1335.7011      129.096        118.52828    
     41100   303.15512     -7138.5413     -5821.9265      167.32468     -5765.8174      28.435821      28.435821      28.435821      807.36478     -420.93612      115.54538    
     41200   296.43678     -7119.4806     -5832.0438     -57.838093     -5851.4774      28.454767      28.454767      28.454767      363.92996      85.056467     -622.5007     
     41300   296.91975     -7140.9196     -5851.3851     -19.79183      -5858.0435      28.466592      28.466592      28.466592      124.90803     -511.84081      327.55728    
     41400   292.50003     -7169.6368     -5899.2974     -49.577522     -5915.9928      28.475955      28.475955      28.475955     -594.67838      768.1028      -322.15698    
     41500   287.66856     -7211.0384     -5961.6822     -958.19013     -6284.1233      28.469134      28.469134      28.469134     -886.05204     -1982.1051     -6.4132509    
     41600   293.36205     -7195.0761     -5920.9929      441.39107     -5773.2724      28.417145      28.417145      28.417145      545.09374      471.05575      308.02373    
     41700   295.83579     -7168.439      -5883.6123     -124.06684     -5924.885       28.360281      28.360281      28.360281     -146.20224     -1008.8875      782.88927    
     41800   304.53035     -7184.2581     -5861.6705      265.85343     -5773.7798      28.301425      28.301425      28.301425     -181.34992      740.74621      238.16399    
     41900   305.51587     -7178.3815     -5851.5138      453.88122     -5702.0186      28.266348      28.266348      28.266348      422.38747      534.44889      404.80731    
     42000   300.52677     -7189.8379     -5884.6381      579.31925     -5693.6586      28.274677      28.274677      28.274677      228.97091      440.40218      1068.5847    
     42100   295.22251     -7211.2175     -5929.0542     -146.57643     -5977.635       28.325309      28.325309      28.325309     -548.15684      248.98209     -140.55453    
     42200   294.43704     -7189.7871     -5911.0351     -308.21038     -6013.5806      28.361626      28.361626      28.361626     -115.90373     -472.92075     -335.80665    
     42300   303.32742     -7179.3873     -5862.0241      518.32768     -5689.4517      28.368107      28.368107      28.368107      66.029298      745.87046      743.08328    
     42400   304.0283      -7168.7216     -5848.3144     -176.24352     -5907.1049      28.386112      28.386112      28.386112      18.624189      418.10951     -965.46428    
     42500   283.15894     -7078.8378     -5849.0671      14.284888     -5844.2961      28.397965      28.397965      28.397965     -635.15401      809.92588     -131.91721    
     42600   313.36262     -7176.0578     -5815.1113     -392.47683     -5946.123       28.392697      28.392697      28.392697     -959.92625     -282.96852      65.464292    
     42700   299.85021     -7127.1968     -5824.9352     -290.12326     -5921.508       28.366037      28.366037      28.366037     -661.183       -29.158557     -180.02821    
     42800   306.69883     -7177.7315     -5845.7261      32.269667     -5835.0374      28.319465      28.319465      28.319465      1189.0655     -606.24256     -486.01392    
     42900   293.92453     -7171.0782     -5894.5522      546.70476     -5714.2205      28.280109      28.280109      28.280109      117.38146      983.14682      539.586      
     43000   286.38365     -7140.9249     -5897.1492      578.66798     -5706.8578      28.251266      28.251266      28.251266      577.78606      765.89812      392.31975    
     43100   307.50178     -7189.0086     -5853.516       152.56737     -5803.3384      28.252529      28.252529      28.252529     -217.23561      342.01088      332.92684    
     43200   296.87388     -7136.3365     -5847.0013      39.735303     -5833.8994      28.276603      28.276603      28.276603     -378.51855      197.62805      300.09641    
     43300   292.83262     -7095.4627     -5823.6788     -215.60468     -5894.9982      28.306825      28.306825      28.306825     -140.28487     -410.93931     -95.589861    
     43400   312.15328     -7123.006      -5767.3118      194.40103     -5702.9147      28.320253      28.320253      28.320253     -282.85888      615.80388      250.25808    
     43500   312.77874     -7149.8852     -5791.4746      831.06085     -5515.7421      28.335207      28.335207      28.335207      1067.1801      352.37024      1073.6322    
     43600   304.99326     -7171.2799     -5846.6819     -865.83437     -6135.1247      28.373724      28.373724      28.373724     -650.25095     -789.79543     -1157.4567    
     43700   297.49663     -7166.1859     -5874.1461     -305.33016     -5975.7637      28.364452      28.364452      28.364452      134.12126     -610.55667     -439.55507    
     43800   303.40231     -7211.0709     -5893.3824      395.06031     -5762.4452      28.325304      28.325304      28.325304      171.56807     -4.8287777      1018.4416    
     43900   296.18578     -7217.9072     -5931.5605      54.487457     -5913.5649      28.292047      28.292047      28.292047      23.52527       684.12585     -544.18875    
     44000   293.33182     -7241.0662     -5967.1143      845.9393      -5688.5249      28.265052      28.265052      28.265052      1109.8098      956.27694      471.73114    
     44100   297.80781     -7203.9308     -5910.5395      421.46047     -5771.3877      28.289073      28.289073      28.289073      225.69671      318.09183      720.59287    
[...]
     91200   299.46625     -7161.7782     -5861.1843      417.84754     -5721.9971      28.372778      28.372778      28.372778     -149.2196       459.90697      942.85524    
     91300   307.28744     -7125.4763     -5790.9146     -193.86909     -5855.9408      28.438146      28.438146      28.438146     -346.46355     -300.18129      65.037561    
     91400   313.21125     -7121.6755     -5761.3865     -218.60122     -5835.0097      28.477079      28.477079      28.477079      245.23616     -184.52156     -716.51827    
     91500   289.30582     -7076.8097     -5820.3429      519.10258     -5645.2285      28.492525      28.492525      28.492525      410.62259      1102.9497      43.735427    
     91600   304.41081     -7146.6023     -5824.5339     -611.09117     -6030.7573      28.496096      28.496096      28.496096     -823.65838     -1042.0539      32.438746    
     91700   300.97517     -7176.1686     -5869.0213      663.72454     -5645.4601      28.478094      28.478094      28.478094      1108.202       299.33192      583.63973    
     91800   293.99952     -7169.8379     -5892.9861      16.34248      -5887.4711      28.495984      28.495984      28.495984     -348.19608      102.27786      294.94565    
     91900   307.98367     -7204.17       -5866.5845     -349.4578      -5984.926       28.529143      28.529143      28.529143     -313.63562     -289.08817     -445.6496     
     92000   298.15699     -7170.5002     -5875.5924      219.86903     -5801.0063      28.545607      28.545607      28.545607     -181.04756      715.17372      125.48092    
     92100   304.56376     -7161.5895     -5838.8569     -271.92336     -5931.2924      28.5653        28.5653        28.5653       -17.184001     -909.90288      111.3168     
     92200   309.84429     -7135.0294     -5789.3631     -378.96868     -5918.3137      28.574677      28.574677      28.574677     -473.55589     -311.20641     -352.14374    
     92300   300.49655     -7141.4688     -5836.4002      50.612568     -5819.1913      28.567565      28.567565      28.567565     -301.70723      667.80094     -214.25601    
     92400   298.98162     -7155.5907     -5857.1015     -431.02683     -6003.4138      28.551803      28.551803      28.551803      68.293905     -506.94471     -854.42967    
     92500   290.29367     -7148.5698     -5887.8128      120.26943     -5847.147       28.514518      28.514518      28.514518      700.58737     -56.394391     -283.38469    
     92600   303.4794      -7180.2252     -5862.2019      305.15078     -5759.4066      28.479186      28.479186      28.479186      196.44553      91.885011      627.12179    
     92700   311.45552     -7163.5831     -5810.9192      36.635789     -5798.6163      28.449549      28.449549      28.449549     -887.52054      609.23805      388.18986    
     92800   313.41995     -7119.9101     -5758.7147      142.93814     -5710.7521      28.44196       28.44196       28.44196       639.82968     -285.54966      74.534411    
     92900   303.20609     -7141.3793     -5824.5431      335.42845     -5711.8976      28.449802      28.449802      28.449802      167.02557      252.79688      586.46292    
     93000   294.83588     -7146.6723     -5866.1882      67.765263     -5843.3812      28.4705        28.4705        28.4705        151.5161      -6.0041448      57.78383     
     93100   303.70693     -7175.671      -5856.6596     -8.8590758     -5859.6482      28.492816      28.492816      28.492816      255.72041      519.89947     -802.19711    
     93200   299.29167     -7147.2837     -5847.4479     -452.32678     -6000.3508      28.512097      28.512097      28.512097     -39.332646     -814.5507      -503.09699    
     93300   299.41811     -7122.3387     -5821.9538     -691.53784     -6055.3005      28.495086      28.495086      28.495086     -706.68892     -686.0751      -681.84951    
     93400   296.65625     -7070.7381     -5782.348      -173.90126     -5840.6542      28.434481      28.434481      28.434481      0.14675346    -756.20067      234.35013    
     93500   317.73577     -7148.2758     -5768.3365      717.3722      -5529.2392      28.378195      28.378195      28.378195      1002.606       328.08811      821.42248    
     93600   303.08767     -7124.3451     -5808.0231      152.01778     -5757.4389      28.362741      28.362741      28.362741      248.56215      365.6607      -158.16949    
     93700   305.25713     -7160.4167     -5834.6727     -66.780789     -5856.9053      28.36751       28.36751       28.36751      -440.94145     -255.75545      496.35454    
     93800   297.0256      -7178.6434     -5888.6492     -314.68064     -5993.3598      28.362738      28.362738      28.362738     -222.68801     -795.97565      74.621734    
     93900   303.61707     -7207.9712     -5889.35       -262.41422     -5976.524       28.347048      28.347048      28.347048     -498.02705     -393.52669      104.31109    
     94000   294.35486     -7222.7195     -5944.3245     -70.651809     -5967.739       28.324449      28.324449      28.324449     -1121.1323      453.54804      455.62882    
     94100   294.3593      -7249.0282     -5970.6139      829.84779     -5695.8331      28.316357      28.316357      28.316357      1257.668       205.66614      1026.2092    
     94200   296.96932     -7251.223      -5961.4733     -191.45575     -6025.0848      28.348528      28.348528      28.348528      126.94718     -287.53767     -413.77675    
     94300   299.66176     -7188.1173     -5886.6742      260.15521     -5799.799       28.396357      28.396357      28.396357      217.31475      208.5099       354.64097    
     94400   299.32995     -7150.3506     -5850.3486      254.09862     -5764.8944      28.463286      28.463286      28.463286     -110.94332     -282.06105      1155.3002    
     94500   303.64322     -7141.8702     -5823.1355     -494.63981     -5990.8232      28.539441      28.539441      28.539441     -761.24627     -98.554812     -624.11836    
     94600   312.67187     -7175.5352     -5817.5887     -1060.538      -6178.1017      28.565353      28.565353      28.565353     -1032.1412     -1459.7048     -689.76812    
     94700   303.07223     -7163.9429     -5847.688      -312.90732     -5953.5449      28.519537      28.519537      28.519537     -406.20097      206.11729     -738.63828    
     94800   303.88294     -7194.1935     -5874.4177      102.29732     -5840.0958      28.440931      28.440931      28.440931     -301.06748     -448.9252       1056.8846    
     94900   283.83095     -7133.9018     -5901.2125      766.17412     -5645.6806      28.384458      28.384458      28.384458      709.18932      586.99349      1002.3395    
     95000   300.29981     -7121.6634     -5817.4493      696.41838     -5585.736       28.361876      28.361876      28.361876      402.79105      795.65749      890.8066     
     95100   317.48701     -7163.2931     -5784.4342      454.3248      -5633.0735      28.374198      28.374198      28.374198      253.12407     -293.39596      1403.2463    
     95200   298.14305     -7123.4951     -5828.6478     -157.09549     -5881.2381      28.419849      28.419849      28.419849     -489.54824      26.674466     -8.4127086    
     95300   297.10097     -7154.5888     -5864.2673     -547.86867     -6048.1274      28.443196      28.443196      28.443196     -1102.0593     -643.07836      101.53168    
     95400   306.22696     -7200.9475     -5870.9914     -414.63869     -6010.0766      28.438828      28.438828      28.438828      563.04229     -1727.6902     -79.2682      
     95500   299.0108      -7182.9547     -5884.3387     -270.89453     -5975.0016      28.417408      28.417408      28.417408     -218.4875      -455.35805     -138.83805    
     95600   299.94837     -7255.3729     -5952.685       241.01158     -5872.3273      28.381671      28.381671      28.381671      310.49538      158.84578      253.69357    
     95700   295.75746     -7279.9602     -5995.4737      8.296092      -5992.7113      28.368821      28.368821      28.368821     -684.34934      209.13744      500.10017    
     95800   292.59743     -7271.156      -6000.3936     -82.976915     -6027.9864      28.356624      28.356624      28.356624     -573.68247      573.71439     -248.96267    
     95900   299.00479     -7247.1473     -5948.5575     -379.24701     -6074.5922      28.350715      28.350715      28.350715     -617.20524      97.507728     -618.04352    
     96000   306.47206     -7229.6071     -5898.5866      24.451856     -5890.4696      28.340128      28.340128      28.340128     -77.929718      115.93708      35.348206    
     96100   310.8409      -7256.2768     -5906.2823     -325.90302     -6014.5241      28.345033      28.345033      28.345033      100.50361     -1001.1986     -77.014132    
     96200   300.99553     -7244.2887     -5937.053      -26.652059     -5945.8981      28.337768      28.337768      28.337768     -174.81674     -529.84354      624.7041     
     96300   298.84461     -7251.7598     -5953.8657     -67.346656     -5976.1971      28.329673      28.329673      28.329673      333.82677     -577.10047      41.233732    
     96400   296.00602     -7238.1947     -5952.6286     -153.9577      -6003.6387      28.322142      28.322142      28.322142      222.76497     -419.34121     -265.29684    
     96500   297.78862     -7224.7538     -5931.4458      33.572682     -5920.3383      28.308629      28.308629      28.308629      244.23505      127.72397     -271.24097    
     96600   293.80158     -7203.8735     -5927.8814      164.62927     -5873.5334      28.287868      28.287868      28.287868     -282.79974      240.60205      536.0855     
     96700   303.6602      -7200.931      -5882.1226      1087.1156     -5523.8928      28.270708      28.270708      28.270708      1307.8876      2003.7696     -50.310418    
     96800   309.45802     -7209.4472     -5865.4586      57.889266     -5846.342       28.290818      28.290818      28.290818     -4.7712281      244.003       -65.563971    
     96900   305.38557     -7201.6178     -5875.316      -171.50769     -5932.1392      28.32188       28.32188       28.32188       247.97334     -1191.3292      428.83277    
     97000   279.05503     -7147.3078     -5935.3605     -195.09512     -6000.2413      28.357275      28.357275      28.357275      54.357404     -36.22384      -603.41893    
     97100   290.54261     -7169.206      -5907.3677      46.739217     -5891.7966      28.373986      28.373986      28.373986      470.18944     -391.55416      61.582376    
     97200   311.96412     -7235.0688     -5880.196       238.44007     -5800.8484      28.363483      28.363483      28.363483     -824.35216      910.0114       629.66098    
     97300   304.73547     -7225.6958     -5902.2174     -318.71337     -6008.2499      28.360954      28.360954      28.360954     -12.515162     -595.70691     -347.91804    
     97400   290.66431     -7189.1468     -5926.78        325.01621     -5818.8057      28.347393      28.347393      28.347393      74.881714      463.80801      436.35892    
     97500   305.35228     -7209.7015     -5883.5443      209.96699     -5813.8711      28.336494      28.336494      28.336494     -155.25108      426.26576      358.8863     
     97600   315.56314     -7218.0435     -5847.54        235.385       -5769.5591      28.321174      28.321174      28.321174      1188.5739     -651.24761      168.82872    
     97700   301.50719     -7189.4072     -5879.9494     -246.88157     -5961.7019      28.316895      28.316895      28.316895     -671.69804      585.67208     -654.61876    
     97800   299.04814     -7223.4502     -5924.6721     -408.69041     -6059.6309      28.290697      28.290697      28.290697     -526.06169      234.01394     -934.02346    
     97900   290.49553     -7243.6804     -5982.0466      448.00536     -5834.805       28.246012      28.246012      28.246012     -412.63697      828.34049      928.31256    
     98000   286.25729     -7211.7191     -5968.4921      369.89231     -5847.2176      28.223194      28.223194      28.223194      413.67201      67.97508       628.02986    
     98100   299.82917     -7224.4185     -5922.2484      536.86056     -5746.2389      28.222765      28.222765      28.222765      1142.5341      496.85403     -28.806421    
     98200   303.78856     -7201.2696     -5881.9036      26.237814     -5873.2813      28.244876      28.244876      28.244876      135.0267      -341.72287      285.40962    
     98300   307.38442     -7175.243      -5840.2601     -122.02919     -5880.5433      28.28752       28.28752       28.28752       48.832388     -1082.6068      667.6868     
     98400   308.82642     -7164.7033     -5823.4577     -264.89612     -5911.4655      28.348047      28.348047      28.348047     -642.18585     -565.14337      412.64084    
     98500   287.90032     -7129.9665     -5879.6038     -687.70873     -6109.0352      28.387303      28.387303      28.387303     -481.907       -963.49985     -617.71933    
     98600   291.63454     -7180.3818     -5913.8012      145.76301     -5865.2306      28.375933      28.375933      28.375933     -189.92865      576.12622      51.091468    
     98700   302.44844     -7196.168      -5882.6223      146.83906     -5833.7742      28.360241      28.360241      28.360241     -144.38892      436.42746      148.47864    
     98800   305.50143     -7192.1528     -5865.3478     -71.241652     -5889.0114      28.345907      28.345907      28.345907     -151.99217     -440.06082      378.32804    
     98900   307.45887     -7146.3997     -5811.0934      153.6403      -5760.0526      28.347342      28.347342      28.347342     -50.996511      384.87383      127.04357    
     99000   307.41811     -7128.7568     -5793.6276      238.68375     -5714.2148      28.361595      28.361595      28.361595     -8.2475829      1207.4535     -483.15466    
     99100   301.46773     -7152.7835     -5843.497       131.75595     -5799.447       28.407516      28.407516      28.407516     -959.63529      735.81372      619.08942    
     99200   296.33579     -7144.6437     -5857.6454     -419.96373     -5998.9862      28.470383      28.470383      28.470383     -193.05847     -784.37748     -282.45524    
     99300   301.01254     -7156.7223     -5849.4128     -469.49408     -6008.1063      28.511346      28.511346      28.511346      509.47768     -1593.9539     -324.00605    
     99400   302.68968     -7203.0077     -5888.4143     -415.98356     -6029.0911      28.516103      28.516103      28.516103     -759.13782     -520.83889      32.026037    
     99500   299.20422     -7232.7397     -5933.2838     -726.87899     -6178.2211      28.482122      28.482122      28.482122     -869.83992     -1068.9542     -241.84287    
     99600   305.65917     -7238.2257     -5910.7356      869.29211     -5619.7521      28.41901       28.41901       28.41901       1426.7506      899.49024      281.63543    
     99700   311.59855     -7212.2616     -5858.9766      29.659587     -5849.0768      28.39192       28.39192       28.39192       26.582875      537.29066     -474.89477    
     99800   308.90819     -7165.8906     -5824.2899     -292.45406     -5921.8288      28.384512      28.384512      28.384512      268.77029     -627.69564     -518.43684    
     99900   300.82312     -7105.5226     -5799.0357      686.26256     -5570.0894      28.387196      28.387196      28.387196      870.39334      1151.7493      36.645004    
    100000   308.94992     -7112.1356     -5770.3537      171.50612     -5712.8539      28.433938      28.433938      28.433938      399.91262     -751.67774      866.28349    
    100100   304.85884     -7164.8973     -5840.8831     -535.11609     -6021.3838      28.491698      28.491698      28.491698     -98.504316     -360.09855     -1146.7454    
    100200   302.13966     -7204.0663     -5891.8616     -850.6169      -6179.1773      28.504702      28.504702      28.504702     -321.53665     -1063.1443     -1167.1698    
    100300   290.0315      -7191.4584     -5931.84        487.66165     -5768.0739      28.44962       28.44962       28.44962       951.9981       671.98207     -160.99521    
    100400   293.34779     -7188.0473     -5914.026       565.957       -5725.242       28.385852      28.385852      28.385852      1192.1726      739.44073     -233.74231    
    100500   305.00503     -7211.9661     -5887.317       232.95826     -5809.8742      28.35365       28.35365       28.35365       743.46629      897.54309     -942.13461    
    100600   299.72238     -7216.1484     -5914.4421      468.32441     -5759.0397      28.33642       28.33642       28.33642       1295.4248      244.23884     -134.69046    
    100700   284.01238     -7181.6508     -5948.1736     -217.5817      -6020.3001      28.326883      28.326883      28.326883     -414.48344      127.90685     -366.1685     
    100800   302.46489     -7240.0793     -5926.4621      53.246365     -5908.8479      28.307317      28.307317      28.307317      560.6037       66.279603     -467.14421    
    100900   302.25127     -7238.1814     -5925.492       762.30701     -5673.6608      28.29445       28.29445       28.29445       978.52673      400.38785      908.00646    
    101000   308.20434     -7281.2519     -5942.708      -185.98832     -6004.3088      28.318811      28.318811      28.318811      700.63638     -176.61217     -1081.9892    
Loop time of 2803.1 on 1 procs for 100000 steps with 2187 atoms

Performance: 3.082 ns/day, 7.786 hours/ns, 35.675 timesteps/s
98.6% CPU use with 1 MPI tasks x 1 OpenMP threads

MPI task timing breakdown:
Section |  min time  |  avg time  |  max time  |%varavg| %total
---------------------------------------------------------------
Pair    | 1626.2     | 1626.2     | 1626.2     |   0.0 | 58.01
Bond    | 0.20823    | 0.20823    | 0.20823    |   0.0 |  0.01
Kspace  | 340.01     | 340.01     | 340.01     |   0.0 | 12.13
Neigh   | 41.816     | 41.816     | 41.816     |   0.0 |  1.49
Comm    | 9.5889     | 9.5889     | 9.5889     |   0.0 |  0.34
Output  | 0.60308    | 0.60308    | 0.60308    |   0.0 |  0.02
Modify  | 780.56     | 780.56     | 780.56     |   0.0 | 27.85
Other   |            | 4.124      |            |       |  0.15

Nlocal:           2187 ave        2187 max        2187 min
Histogram: 1 0 0 0 0 0 0 0 0 0
Nghost:          11662 ave       11662 max       11662 min
Histogram: 1 0 0 0 0 0 0 0 0 0
Neighs:         763099 ave      763099 max      763099 min
Histogram: 1 0 0 0 0 0 0 0 0 0

Total # of neighbors = 763099
Ave neighs/atom = 348.92501
Ave special neighs/atom = 2
Neighbor list builds = 1513
Dangerous builds = 0

write_data  water2.data
System init for write_data ...
PPPM initialization ...
  using 12-bit tables for long-range coulomb (src/kspace.cpp:342)
  G vector (1/distance) = 0.30309982
  grid = 24 24 24
  stencil order = 5
  estimated absolute RMS force accuracy = 0.0031705023
  estimated relative force accuracy = 9.5478735e-06
  using double precision FFTW3
  3d grid and FFT values/proc = 29791 13824
Generated 0 of 1 mixed pair_coeff terms from geometric mixing rule
WARNING: Not all mixed pair coeffs generated from mixing. Use write_data with 'pair ij' option to store all pair coeffs. (src/write_data.cpp:309)
write_restart     water2.restart
System init for write_restart ...
PPPM initialization ...
  using 12-bit tables for long-range coulomb (src/kspace.cpp:342)
  G vector (1/distance) = 0.30309982
  grid = 24 24 24
  stencil order = 5
  estimated absolute RMS force accuracy = 0.0031705023
  estimated relative force accuracy = 9.5478735e-06
  using double precision FFTW3
  3d grid and FFT values/proc = 29791 13824
Generated 0 of 1 mixed pair_coeff terms from geometric mixing rule
Total wall time: 0:46:43
