LAMMPS (4 May 2022)
OMP_NUM_THREADS environment is not set. Defaulting to 1 thread. (src/comm.cpp:98)
  using 1 OpenMP thread(s) per MPI task
# spc water - 1=O, 2=H

read_restart    water1.restart
Reading restart file ...
  restart file = 4 May 2022, LAMMPS = 4 May 2022
  restoring atom style full from restart
  orthogonal box = (-0.59989405 -0.59989405 -0.59989405) to (25.399894 25.399894 25.399894)
  1 by 1 by 1 MPI processor grid
  restoring pair style lj/cut/coul/long from restart
  restoring bond style harmonic from restart
  restoring angle style harmonic from restart
  1536 atoms
  1024 bonds
  512 angles
Finding 1-2 1-3 1-4 neighbors ...
  special bond factors lj:    0        0        0       
  special bond factors coul:  0        0        0       
     2 = max # of 1-2 neighbors
     1 = max # of 1-3 neighbors
     1 = max # of 1-4 neighbors
     2 = max # of special neighbors
  special bonds CPU = 0.000 seconds
  read_restart CPU = 0.004 seconds

kspace_style   pppm 1.0e-5

group oxygen type 1
512 atoms in group oxygen

#======================
neighbor        2.0 bin
neigh_modify    every 1 delay 1 check yes
#======================

#reset_timestep 0
timestep 1.0

fix            1 all shake 0.0001 20 0 b 1 a 1
       0 = # of size 2 clusters
       0 = # of size 3 clusters
       0 = # of size 4 clusters
     512 = # of frozen angles
  find clusters CPU = 0.000 seconds
fix            2 all npt temp 300.0 300.0 100.0 iso 1.0 1.0 1000.0
Resetting global fix info from restart file:
  fix style: npt, fix ID: 2
fix            3 all momentum 1 linear 1 1 1
fix	       xwall1 all wall/lj93 xlo EDGE 1.0 1.0 2.5 pbc yes
fix	       xwall2 all wall/lj93 xhi EDGE 1.0 1.0 2.5 pbc yes
fix	       ywall1 all wall/lj93 ylo EDGE 1.0 1.0 2.5 pbc yes
fix	       ywall2 all wall/lj93 yhi EDGE 1.0 1.0 2.5 pbc yes
fix	       zwall1 all wall/lj93 zlo EDGE 1.0 1.0 2.5 pbc yes
fix	       zwall2 all wall/lj93 zhi EDGE 1.0 1.0 2.5 pbc yes

compute	MSD oxygen msd com no
fix 4 oxygen ave/time 1 1 500 c_MSD[4] file ../spc8.msd

thermo 100
thermo_style custom step temp pe etotal press enthalpy lx ly lz pxx pyy pzz
thermo_modify flush yes


dump         2 all custom 1000 md2.lammpstrj id type x y z
#dump_modify  1 unwrap yes
run 100000
PPPM initialization ...
  using 12-bit tables for long-range coulomb (src/kspace.cpp:342)
  G vector (1/distance) = 0.30937409
  grid = 24 24 24
  stencil order = 5
  estimated absolute RMS force accuracy = 0.0020576376
  estimated relative force accuracy = 6.1965146e-06
  using double precision FFTW3
  3d grid and FFT values/proc = 29791 13824
Generated 0 of 1 mixed pair_coeff terms from geometric mixing rule
All restart file global fix info was re-assigned
Neighbor list info ...
  update every 1 steps, delay 1 steps, check yes
  max neighbors/atom: 2000, page size: 100000
  master list distance cutoff = 12
  ghost atom cutoff = 12
  binsize = 6, bins = 5 5 5
  1 neighbor lists, perpetual/occasional/extra = 1 0 0
  (1) pair lj/cut/coul/long, perpetual
      attributes: half, newton on
      pair build: half/bin/newton
      stencil: half/bin/3d
      bin: standard
Per MPI rank memory allocation (min/avg/max) = 14.02 | 14.02 | 14.02 Mbytes
   Step          Temp          PotEng         TotEng         Press         Enthalpy          Lx             Ly             Lz            Pxx            Pyy            Pzz      
      1000   302.35371     -4645.3073     -3723.3194     -5198.1213     -5055.7105      25.999788      25.999788      25.999788     -5210.2786     -5279.0881     -5104.9972    
      1100   340.80004     -4661.133      -3621.908      -1836.4674     -4084.9649      25.85781       25.85781       25.85781      -2090.0483     -1941.6441     -1477.7098    
      1200   323.14142     -4704.9302     -3719.5529     -1278.6618     -4036.4768      25.710338      25.710338      25.710338     -1281.8263     -969.22892     -1584.9301    
      1300   291.37283     -4808.6337     -3920.1305     -1554.1774     -4298.83        25.564623      25.564623      25.564623     -2557.0948     -994.19385     -1111.2435    
      1400   286.39881     -4888.5898     -4015.2543     -1727.3783     -4428.7141      25.413043      25.413043      25.413043     -960.72946     -2474.7876     -1746.6177    
      1500   299.79611     -4929.9262     -4015.7373     -220.25512     -4067.6191      25.277704      25.277704      25.277704     -975.59829      13.941453      300.89147    
      1600   300.97774     -4915.7064     -3997.9143      502.0947      -3880.6039      25.209155      25.209155      25.209155     -487.5628       1005.7133      988.13361    
      1700   302.7062      -4917.2509     -3994.1881      294.66594     -3925.4937      25.190606      25.190606      25.190606      634.56107      226.00916      23.427578    
      1800   307.21543     -4969.0047     -4032.1916      293.79068     -3963.6945      25.191431      25.191431      25.191431     -111.1104       801.3731       191.10934    
      1900   284.28444     -4947.3927     -4080.5047      153.01638     -4044.8213      25.193245      25.193245      25.193245     -643.2666      -23.514969      1125.8307    
      2000   295.38679     -4989.8529     -4089.1097      161.19103     -4051.5192      25.193414      25.193414      25.193414     -386.81397     -64.11443       934.5015     
      2100   292.54474     -4974.9202     -4082.8434     -233.66549     -4137.389       25.201688      25.201688      25.201688     -1166.3946      37.06894       428.32918    
      2200   297.3526      -4980.7898     -4074.0521      194.512       -4028.6811      25.195261      25.195261      25.195261     -162.03366      564.3537       181.21594    
      2300   301.83669     -4960.3985     -4039.9872      710.4552      -3874.4645      25.185369      25.185369      25.185369      773.5291       273.62257      1084.2139    
      2400   310.22043     -4967.0869     -4021.1105      270.32285     -3958.0632      25.194315      25.194315      25.194315     -660.01917      1124.7357      346.252      
      2500   299.79091     -4974.7503     -4060.5773      203.08267     -4013.0702      25.219491      25.219491      25.219491      1548.7152     -888.64688     -50.820326    
      2600   293.21266     -5020.3036     -4126.1901     -77.803784     -4144.4435      25.243838      25.243838      25.243838      252.33417     -384.29991     -101.44562    
      2700   304.86099     -5049.732      -4120.0985     -608.46928     -4263.1668      25.262498      25.262498      25.262498     -1307.0907     -330.40665     -187.91045    
      2800   295.53377     -5009.5675     -4108.376      -830.82287     -4303.6839      25.260686      25.260686      25.260686     -1445.5644     -870.01547     -176.88877    
      2900   298.08268     -5005.0691     -4096.1052      601.60831     -3955.2656      25.225801      25.225801      25.225801      451.3079       1265.7853      87.731705    
      3000   298.79278     -5011.3278     -4100.1985     -161.21045     -4137.7712      25.188433      25.188433      25.188433     -170.27081     -569.27067      255.91014    
      3100   292.64981     -5001.7154     -4109.3182      705.83854     -3945.275       25.164731      25.164731      25.164731      699.52713      834.51008      583.47842    
      3200   299.57113     -5020.0994     -4106.5966      156.39402     -4070.2141      25.172827      25.172827      25.172827     -664.51197      255.23265      878.46138    
      3300   292.82771     -4988.1532     -4095.2136      181.35583     -4052.9684      25.183929      25.183929      25.183929     -607.78784     -285.51579      1437.3711    
      3400   306.75081     -5013.5635     -4078.1672      563.17812     -3946.775       25.197031      25.197031      25.197031      74.628837      464.93492      1149.9706    
      3500   286.06704     -4968.5326     -4096.2088     -133.63963     -4127.5168      25.231808      25.231808      25.231808     -75.066612      488.08145     -813.93373    
      3600   297.7325      -4999.8733     -4091.9772     -153.14033     -4127.9352      25.250893      25.250893      25.250893     -370.91993     -112.62167      24.120611    
      3700   294.63426     -4993.3115     -4094.863       135.11484     -4063.1568      25.245771      25.245771      25.245771     -117.66338      1137.8902     -614.88226    
      3800   308.99636     -5035.5545     -4093.3107     -321.49301     -4168.5229      25.220104      25.220104      25.220104      401.12332     -194.6469      -1170.9554    
      3900   303.17994     -5027.3816     -4102.8742     -176.90578     -4144.1101      25.189466      25.189466      25.189466      16.555111      157.27739     -704.54985    
      4000   310.92024     -5063.5517     -4115.4413     -147.98859     -4149.8565      25.169948      25.169948      25.169948     -52.923156      259.27743     -650.32004    
      4100   299.26249     -5054.3503     -4141.7886      151.8147      -4106.532       25.158436      25.158436      25.158436     -499.20379      412.6079       542.03997    
      4200   300.13052     -5040.9922     -4125.7836      759.33324     -3949.3668      25.161927      25.161927      25.161927      199.77699      858.87276      1219.35      
      4300   307.45839     -5025.9782     -4088.4242     -965.01938     -4313.5651      25.196919      25.196919      25.196919     -1845.5515     -587.28147     -462.22515    
      4400   302.81233     -4981.0845     -4057.698      -235.10621     -4112.6262      25.208772      25.208772      25.208772      330.17643     -844.06684     -191.42823    
      4500   306.42207     -5005.4965     -4071.1026     -291.52259     -4139.1467      25.200789      25.200789      25.200789     -462.79611     -767.55006      355.77841    
      4600   294.68584     -5031.9729     -4133.3672     -150.13565     -4168.327       25.18081       25.18081       25.18081       286.98184     -389.17091     -348.21788    
      4700   286.86857     -5033.3465     -4158.5785     -28.494605     -4165.1912      25.152383      25.152383      25.152383     -433.23041     -552.09518      899.84177    
      4800   299.08975     -5051.4469     -4139.412       875.96851     -3936.5517      25.134924      25.134924      25.134924      319.1367       1874.6895      434.07936    
      4900   310.32358     -5041.4258     -4095.1347      351.30323     -4013.5397      25.159493      25.159493      25.159493     -471.57998      319.79716      1205.6925    
      5000   306.99651     -5034.4897     -4098.3442     -310.7369      -4170.7935      25.191566      25.191566      25.191566     -827.06426     -544.1116       438.96515    
      5100   295.42434     -5026.9025     -4126.0447      1109.7679     -3866.3993      25.220723      25.220723      25.220723      1166.7044      1364.9494      797.64984    
      5200   305.22423     -5082.754      -4152.0128     -724.55125     -4322.7365      25.280338      25.280338      25.280338     -939.06698     -588.70682     -645.87993    
      5300   298.31998     -5091.0873     -4181.3997     -620.26116     -4328.2357      25.31982       25.31982       25.31982      -182.0021      -961.83455     -716.94683    
      5400   298.22716     -5077.9921     -4168.5875     -320.44263     -4244.3673      25.310991      25.310991      25.310991     -345.06859     -158.37551     -457.88379    
      5500   298.5704      -5059.719      -4149.2677      229.67935     -4095.1469      25.280681      25.280681      25.280681      28.235643      192.77876      468.02364    
      5600   300.48686     -5035.6347     -4119.3395      723.05549     -3949.4501      25.256488      25.256488      25.256488      354.56302      1311.0672      503.53623    
      5700   296.76842     -4999.6538     -4094.6975      457.07834     -3987.1317      25.269842      25.269842      25.269842      1988.9446     -756.56135      138.85176    
      5800   311.18555     -4987.0345     -4038.115      -363.99001     -4124.0853      25.300411      25.300411      25.300411      863.42976     -1079.5835     -875.81626    
      5900   309.36694     -4985.4392     -4042.0654     -322.76966     -4118.4789      25.320203      25.320203      25.320203     -1410.1429      131.49052      310.34334    
      6000   293.63144     -5002.2898     -4106.8993     -104.88178     -4131.7062      25.312319      25.312319      25.312319     -224.89804      193.93903     -283.68633    
      6100   294.03978     -5062.1805     -4165.5448     -710.35085     -4332.8565      25.27702       25.27702       25.27702      -812.91079     -538.1735      -779.96827    
      6200   289.89523     -5054.4002     -4170.4027      193.98954     -4125.0639      25.211889      25.211889      25.211889      877.18697     -94.449858     -200.76848    
      6300   300.98686     -5041.1278     -4123.3079      256.2833      -4063.8285      25.153013      25.153013      25.153013      469.41613      970.30863     -670.87487    
      6400   308.6725      -5018.6898     -4077.4336      1057.2084     -3832.7816      25.128743      25.128743      25.128743     -32.029254      1006.988       2196.6664    
      6500   306.21495     -5021.4838     -4087.7215      749.31375     -3913.5707      25.164908      25.164908      25.164908      748.344        1422.0073      77.589918    
      6600   292.31988     -5023.7607     -4132.3696     -281.19017     -4198.3094      25.240079      25.240079      25.240079      155.10834     -1053.3606      54.681708    
      6700   304.0026      -5065.7791     -4138.7631     -810.42509     -4329.6534      25.277359      25.277359      25.277359     -633.01573     -506.78456     -1291.475     
      6800   301.51737     -5051.6585     -4132.2208     -11.95328      -4135.0329      25.267169      25.267169      25.267169      213.85386      179.4645      -429.1782     
      6900   294.00672     -5037.2931     -4140.7582     -902.29112     -4352.7082      25.254393      25.254393      25.254393     -596.74815     -418.66652     -1691.4587    
      7000   300.23326     -5042.1946     -4126.6727      666.4612      -3970.8272      25.216288      25.216288      25.216288      1071.4266      558.9552       369.00181    
      7100   300.51123     -5043.1373     -4126.7677      431.15349     -4026.0848      25.204767      25.204767      25.204767      198.79395      371.24971      723.4168     
      7200   301.76048     -5053.263      -4133.0841      180.34983     -4090.9774      25.20306       25.20306       25.20306      -530.73114      736.00105      335.77959    
      7300   308.39409     -5083.0115     -4142.6042      695.76841     -3979.536       25.235364      25.235364      25.235364      1347.2454      171.75998      568.29987    
      7400   291.10781     -5047.1873     -4159.4922      406.64409     -4063.3901      25.305457      25.305457      25.305457      923.7241       77.702286      218.50588    
      7500   300.36351     -5076.0921     -4160.173      -334.53788     -4239.792       25.364823      25.364823      25.364823      57.62261      -361.18802     -700.04824    
      7600   300.02605     -5068.8576     -4153.9675     -417.74676     -4253.7114      25.39213       25.39213       25.39213       181.95363     -578.90493     -856.28898    
      7700   306.43376     -5068.889      -4134.4595     -548.84068     -4265.237       25.37486       25.37486       25.37486      -96.935969     -612.08158     -937.50447    
      7800   301.04551     -5047.8805     -4129.8817      208.05182     -4080.5799      25.328245      25.328245      25.328245      1148.4855     -742.05977      217.72978    
      7900   301.58426     -5052.5888     -4132.9472      409.48229     -4036.4534      25.281108      25.281108      25.281108     -424.69506      671.61157      981.53037    
      8000   296.23679     -5029.9201     -4126.5849      684.26062     -3965.8365      25.25514       25.25514       25.25514       432.86776      471.39024      1148.5239    
      8100   305.59209     -5038.3855     -4106.5226      248.41012     -4048.1525      25.256992      25.256992      25.256992     -374.6408       513.41752      606.45362    
      8200   311.98533     -5047.0224     -4095.6641     -96.924086     -4118.5021      25.280353      25.280353      25.280353     -779.24709     -115.09962      603.57445    
      8300   289.46355     -5019.1699     -4136.4888     -494.18689     -4253.2835      25.305718      25.305718      25.305718     -1183.5803      32.447286     -331.42762    
      8400   306.5128      -5084.217      -4149.5464     -479.85511     -4262.8516      25.298098      25.298098      25.298098     -655.65619     -1246.1954      462.2862     
      8500   297.86606     -5057.9789     -4149.6755     -317.83975     -4224.5154      25.274535      25.274535      25.274535     -122.77094     -492.37688     -338.37142    
      8600   295.46279     -5034.2562     -4133.2812      672.10105     -3975.5508      25.24653       25.24653       25.24653       101.19041      657.8861       1257.2267    
      8700   308.49298     -5039.4431     -4098.7342      288.77923     -4031.0011      25.241769      25.241769      25.241769     -789.28933      1418.7927      236.8343     
      8800   311.26266     -5055.1986     -4106.044       168.57837     -4066.4622      25.250663      25.250663      25.250663      18.014114     -26.288773      514.00978    
      8900   297.33011     -5058.0564     -4151.3873      124.06489     -4122.1368      25.285382      25.285382      25.285382     -528.96732     -296.82666      1197.9886    
      9000   290.03449     -5019.2696     -4134.8475      98.939342     -4111.4007      25.328695      25.328695      25.328695     -179.83544      441.15588      35.497585    
      9100   303.19442     -5037.0323     -4112.4807     -315.61242     -4187.528       25.357226      25.357226      25.357226     -44.388303     -801.52324     -100.92571    
      9200   295.46746     -5020.2589     -4119.2697     -212.05865     -4169.6824      25.355331      25.355331      25.355331      541.37773     -662.34922     -515.20446    
      9300   294.29922     -5044.8183     -4147.3915      336.38053     -4067.4718      25.350256      25.350256      25.350256      855.0431      -353.61011      507.7086     
      9400   296.9846      -5044.4693     -4138.8538     -178.94671     -4181.4485      25.366006      25.366006      25.366006      1028.5836     -773.2321      -792.19161    
      9500   309.06825     -5051.8386     -4109.3756      670.95934     -3949.4009      25.380083      25.380083      25.380083      135.7369       876.32357      1000.8175    
      9600   295.35226     -5013.3575     -4112.7196      154.5582      -4075.7209      25.413981      25.413981      25.413981     -314.14406      75.125565      702.6931     
      9700   301.48894     -5056.5635     -4137.2126     -799.25741     -4329.2149      25.443759      25.443759      25.443759     -1788.9693     -735.91458      127.1117     
      9800   288.53363     -5039.125      -4159.2796     -833.43658     -4359.2154      25.43201       25.43201       25.43201      -1281.9943     -625.68743     -592.62804    
      9900   301.86317     -5036.3198     -4115.8277     -280.96824     -4182.9274      25.393891      25.393891      25.393891     -531.42059     -230.05692     -81.427205    
     10000   301.18868     -5005.7333     -4087.298       81.797        -4067.8815      25.342688      25.342688      25.342688     -565.70167      191.239        619.85367    
     10100   303.00229     -5023.1969     -4099.2312     -88.18173      -4120.0227      25.285835      25.285835      25.285835      579.14222     -820.21709     -23.470314    
     10200   290.87524     -5026.2655     -4139.2797      577.11638     -4003.8398      25.246571      25.246571      25.246571     -134.33436      1022.9121      842.7714     
     10300   304.07725     -5076.1723     -4148.9287      87.349135     -4128.4348      25.244284      25.244284      25.244284      330.68995      631.79876     -700.4413     
     10400   302.52125     -5024.6172     -4102.1184      805.29053     -3912.8566      25.258728      25.258728      25.258728      19.610672      564.17275      1832.0882    
     10500   312.23152     -5018.0253     -4065.9163     -19.787915     -4070.5902      25.300878      25.300878      25.300878     -893.62771      568.49316      265.77081    
     10600   302.86665     -5027.0549     -4103.5028     -9.9803349     -4105.8705      25.337799      25.337799      25.337799      775.01991      122.19959     -927.1605     
     10700   296.87753     -5030.4369     -4125.1478     -473.25458     -4237.7217      25.360371      25.360371      25.360371     -148.99642     -301.98796     -968.77936    
     10800   298.18383     -5053.4256     -4144.1532      975.39972     -3912.0751      25.362491      25.362491      25.362491      404.73848      1357.141       1164.3196    
     10900   293.64588     -5077.6652     -4182.2307      145.53851     -4147.4695      25.39492       25.39492       25.39492       985.02055      55.017158     -603.42218    
     11000   291.77624     -5086.9356     -4197.2023     -38.240791     -4206.3661      25.422899      25.422899      25.422899      1115.2163     -433.00929     -796.92943    
     11100   304.7363      -5081.4106     -4152.1573      206.21315     -4102.6735      25.434529      25.434529      25.434529      764.86539      180.99467     -327.2206     
     11200   298.8407      -5050.2461     -4138.9707     -11.881128     -4141.8287      25.45536       25.45536       25.45536       555.02693     -444.32848     -146.34183    
     11300   301.62018     -5049.5166     -4129.7654     -358.74998     -4216.1931      25.468004      25.468004      25.468004      851.35752     -1032.2805     -895.32693    
     11400   305.14047     -5039.5166     -4109.0308      700.87937     -3939.8078      25.486691      25.486691      25.486691     -510.55524      1221.3031      1391.8902    
     11500   300.4455      -5026.1955     -4110.0264      257.55699     -4047.5262      25.529601      25.529601      25.529601     -356.26245      192.4805       936.45293    
     11600   302.4279      -5052.4016     -4130.1875     -482.16366     -4247.7068      25.566991      25.566991      25.566991      43.25079      -1127.8479     -361.89392    
     11700   291.66952     -5066.212      -4176.8041     -410.24556     -4276.8348      25.570414      25.570414      25.570414     -156.72706     -645.19438     -428.81525    
     11800   299.70562     -5074.9897     -4161.0768     -134.11943     -4193.7215      25.55534       25.55534       25.55534       270.28714     -27.281305     -645.36413    
     11900   298.51652     -5012.9508     -4102.6638     -58.178572     -4116.8002      25.540699      25.540699      25.540699      187.11324     -584.69042      223.04147    
     12000   297.91961     -5019.911      -4111.4442     -243.81822     -4170.4949      25.512967      25.512967      25.512967      651.18322     -868.82543     -513.81245    
     12100   298.39562     -5045.555      -4135.6368      423.59023     -4033.4431      25.480074      25.480074      25.480074      356.74968      862.5036       51.517402    
     12200   294.351       -5062.6107     -4165.026      -56.848447     -4178.7114      25.46171       25.46171       25.46171      -574.05306      39.90736       363.60036    
     12300   294.14275     -5060.9436     -4163.9939      184.28773     -4119.6824      25.451588      25.451588      25.451588      200.48135      280.61752      71.764322    
     12400   299.26587     -5008.2806     -4095.7086     -132.39605     -4127.5352      25.449527      25.449527      25.449527      135.6576      -580.93131      48.08557     
     12500   299.17209     -4999.2108     -4086.9248     -371.45933     -4176.1546      25.443349      25.443349      25.443349      165.59475     -609.77965     -670.19307    
     12600   304.08937     -5012.7272     -4085.4466     -288.03403     -4154.3609      25.409523      25.409523      25.409523     -657.5394       302.02753     -508.59021    
     12700   303.34352     -5014.3465     -4089.3403      640.86471     -3937.1726      25.345062      25.345062      25.345062      1115.3749      484.87393      322.34525    
     12800   286.58964     -5029.1367     -4155.2192      661.57344     -3998.9831      25.299337      25.299337      25.299337      1312.7641     -628.51488      1300.4711    
     12900   295.96902     -5066.6        -4164.0813     -546.08016     -4292.7616      25.280939      25.280939      25.280939     -863.56793     -330.40674     -444.26581    
     13000   303.02816     -5066.7202     -4142.6756     -131.93134     -4173.6156      25.240556      25.240556      25.240556      126.65103      165.21693     -687.66199    
     13100   292.2597      -5008.2595     -4117.052       421.23615     -4019.0405      25.174362      25.174362      25.174362      786.09587      512.58372     -34.971148    
     13200   310.56188     -5069.0127     -4121.995       760.31465     -3945.9825      25.13187       25.13187       25.13187       50.001361     -204.23411      2435.1767    
     13300   296.22269     -5057.1872     -4153.895      -45.175498     -4164.3623      25.139273      25.139273      25.139273      288.02324      45.46622      -469.01596    
     13400   296.28886     -5066.42       -4162.926       442.97296     -4059.9143      25.169684      25.169684      25.169684     -144.25464      1439.4659      33.707583    
     13500   301.17689     -5085.6236     -4167.2242     -329.55007     -4244.3075      25.218604      25.218604      25.218604     -21.57247      -627.4399      -339.63784    
     13600   295.39781     -5114.4572     -4213.6804     -145.35378     -4247.8188      25.253039      25.253039      25.253039      1015.9237     -618.45067     -833.53441    
     13700   297.29872     -5141.8617     -4235.2883     -722.2099      -4405.4953      25.282075      25.282075      25.282075     -560.39412     -669.85804     -936.37755    
     13800   285.71681     -5088.1284     -4216.8725     -157.44591     -4254.0465      25.297477      25.297477      25.297477     -59.835299     -715.36266      302.86023    
     13900   299.41889     -5079.3296     -4166.291       137.58423     -4133.7214      25.31954       25.31954       25.31954       912.30151     -23.742578     -475.80624    
     14000   296.70541     -5044.9246     -4140.1604      17.043432     -4136.1081      25.356403      25.356403      25.356403     -102.25757     -280.02457      433.41243    
     14100   301.60812     -5030.2458     -4110.5315     -661.18829     -4268.454       25.394969      25.394969      25.394969     -594.81869     -314.98288     -1073.7633    
     14200   299.36689     -4998.7558     -4085.8758     -147.34183     -4121.0783      25.397458      25.397458      25.397458     -1119.9022      387.54233      290.33437    
     14300   315.14631     -5059.0614     -4098.0641     -685.39609     -4261.3136      25.371424      25.371424      25.371424      159.94687     -928.78098     -1287.3542    
     14400   293.5979      -5065.331      -4170.0428     -83.044944     -4189.711       25.323608      25.323608      25.323608     -23.220374      256.9919      -482.90635    
     14500   297.68234     -5095.0924     -4187.3492     -567.65672     -4321.0624      25.277701      25.277701      25.277701     -707.87974     -241.61956     -753.47086    
     14600   293.36029     -5068.9396     -4174.3759     -274.3605      -4238.5026      25.212371      25.212371      25.212371      568.11736     -374.11793     -1017.0809    
     14700   302.16489     -5049.2773     -4127.8652      871.81806     -3925.9633      25.135037      25.135037      25.135037      1451.5625      1735.929      -572.03734    
     14800   299.49127     -5065.8615     -4152.6022      583.95014     -4017.9661      25.097852      25.097852      25.097852      450.55889      1534.3332     -233.04165    
     14900   296.26545     -5098.6889     -4195.2663      226.27758     -4143.2204      25.07781       25.07781       25.07781       548.03506      204.52628     -73.728598    
     15000   289.26122     -5102.9409     -4220.8768      451.32876     -4117.193       25.067671      25.067671      25.067671      1157.9         1056.0962     -860.00991    
     15100   286.70613     -5091.2938     -4217.0211      533.02414     -4094.2344      25.090514      25.090514      25.090514      940.73049      543.2326       115.10933    
     15200   306.02964     -5072.8736     -4139.6764      424.6609      -4041.2471      25.142132      25.142132      25.142132     -208.0698       914.09288      567.95962    
     15300   300.5443      -5035.8457     -4119.3753     -3.8215246     -4120.269       25.21721       25.21721       25.21721      -64.737193      817.55419     -764.28158    
     15400   304.01579     -5040.9406     -4113.8844     -370.37954     -4201.1247      25.277348      25.277348      25.277348      146.40243     -824.57316     -432.96787    
     15500   291.6149      -5041.6927     -4152.4514     -617.73223     -4298.688       25.319782      25.319782      25.319782     -1019.0296     -1071.2123      237.04515    
     15600   285.20589     -5045.2131     -4175.5152     -680.04628     -4336.3098      25.309622      25.309622      25.309622      17.517389     -1227.9286     -829.72762    
     15700   300.29627     -5072.3508     -4156.6367     -247.79774     -4214.7715      25.243769      25.243769      25.243769     -740.77707     -266.18984      263.57369    
     15800   298.64649     -5067.7445     -4157.0612      425.16819     -4058.2723      25.162699      25.162699      25.162699      633.65188      686.68833     -44.835621    
     15900   303.21004     -5063.1358     -4138.5366      212.00199     -4089.5971      25.108132      25.108132      25.108132      1131.9106     -876.37345      380.46882    
     16000   305.19533     -5044.5041     -4113.851       553.2954      -3986.4378      25.087681      25.087681      25.087681      312.11252      1022.346       325.42771    
     16100   309.55827     -5066.7166     -4122.7593      494.01717     -4008.7608      25.105009      25.105009      25.105009      504.02887      612.32427      365.69836    
     16200   288.1437      -5059.0616     -4180.4053     -240.78001     -4236.3318      25.159797      25.159797      25.159797      782.55742     -747.10229     -757.79517    
     16300   300.06329     -5094.8779     -4179.8744     -990.09088     -4410.746       25.192614      25.192614      25.192614     -741.7904      -1824.1431     -404.3391     
     16400   297.97048     -5064.1314     -4155.5095     -802.62673     -4342.1667      25.170108      25.170108      25.170108     -772.57725     -1122.4721     -512.8308     
     16500   303.15156     -5050.6852     -4126.2644      27.666547     -4119.8737      25.11334       25.11334       25.11334      -25.865129      172.97469     -64.109926    
     16600   307.08786     -5059.6211     -4123.197       1019.964      -3888.4271      25.083832      25.083832      25.083832      1522.768       395.53169      1141.5925    
     16700   292.4165      -5029.6921     -4138.0063     -360.54728     -4221.1641      25.10084       25.10084       25.10084      -178.25094     -795.34772     -108.04319    
     16800   300.51915     -5044.4242     -4128.0306     -156.99879     -4164.29        25.112106      25.112106      25.112106     -331.79941      727.89668     -867.09363    
     16900   298.99214     -5044.9676     -4133.2303     -18.832347     -4137.5809      25.114463      25.114463      25.114463      648.45536     -170.02946     -534.92294    
     17000   300.26843     -5078.3502     -4162.7211     -47.44501      -4173.6675      25.103571      25.103571      25.103571     -1168.9654      1352.6001     -325.96975    
     17100   294.21349     -5078.0089     -4180.8435     -311.34416     -4252.4576      25.078055      25.078055      25.078055     -885.72644     -127.45091      79.144889    
     17200   297.21444     -5081.5969     -4175.2805     -160.03597     -4211.9361      25.042759      25.042759      25.042759     -58.951518     -776.62773      355.47135    
     17300   295.27839     -5044.9421     -4144.5294      1253.8353     -3857.9882      25.024009      25.024009      25.024009      2298.4917      1326.2355      136.77871    
     17400   305.89387     -5054.7627     -4121.9795      793.82976     -3940.0483      25.047705      25.047705      25.047705      753.63638      919.35049      708.50239    
     17500   311.45599     -5051.134      -4101.3898     -70.39025      -4117.6148      25.095631      25.095631      25.095631     -254.40448     -691.40071      734.63445    
     17600   287.49864     -5030.5524     -4153.863      -24.751325     -4159.5978      25.138913      25.138913      25.138913      988.24213     -567.48661     -495.0095     
     17700   289.92058     -5038.0152     -4153.9405      115.94728     -4127.0035      25.161548      25.161548      25.161548     -161.02683      335.66919      173.19949    
     17800   310.86965     -5061.8723     -4113.9161     -54.43262      -4126.5877      25.178658      25.178658      25.178658     -237.5068       52.534689      21.674253    
     17900   295.95496     -5010.5334     -4108.0576     -52.717316     -4120.3661      25.203321      25.203321      25.203321      1081.1335     -941.69973     -297.58571    
     18000   300.48405     -5025.3052     -4109.0186     -793.45664     -4294.5502      25.215812      25.215812      25.215812     -529.5006      -928.29622     -922.57309    
     18100   291.41056     -4988.5427     -4099.9244     -621.65105     -4244.9309      25.195422      25.195422      25.195422     -1263.2809      25.888002     -627.56025    
     18200   316.72794     -5004.5348     -4038.7146     -10.410181     -4041.1272      25.141232      25.141232      25.141232     -936.19846      676.33858      228.62934    
     18300   314.42627     -5000.046      -4041.2444      414.43262     -3945.8332      25.085523      25.085523      25.085523      724.89099      479.55809      38.848781    
     18400   302.56633     -5015.4636     -4092.8273      874.19539     -3891.8849      25.072391      25.072391      25.072391      1526.3965      141.6096       954.58008    
     18500   307.65463     -5056.564      -4118.4116     -309.1954      -4189.6852      25.096122      25.096122      25.096122     -1362.8364      1097.661      -662.41078    
     18600   306.41178     -5076.9505     -4142.588       311.00814     -4070.6954      25.119575      25.119575      25.119575     -1053.8262      1259.9355      726.91507    
     18700   277.09882     -5020.5402     -4175.5638     -649.76234     -4326.3076      25.149907      25.149907      25.149907     -1113.9887     -31.793649     -803.5047     
     18800   301.7651      -5040.1666     -4119.9736     -196.84208     -4165.596       25.141707      25.141707      25.141707     -710.81132     -411.83181      532.11688    
     18900   303.15077     -5030.2632     -4105.8447      511.94434     -3987.5038      25.119561      25.119561      25.119561      97.694956      1355.5415      82.596615    
     19000   301.64393     -5031.8344     -4112.0108      3.1426827     -4111.2848      25.114227      25.114227      25.114227     -716.5335       579.74287      146.21867    
     19100   299.53744     -5042.2282     -4128.8281     -764.21423     -4305.0252      25.097817      25.097817      25.097817     -737.00481     -1380.133      -175.50486    
     19200   296.96891     -5052.1436     -4146.576      -487.54375     -4258.4196      25.055741      25.055741      25.055741     -47.461468     -559.88096     -855.28882    
     19300   291.1924      -5030.3286     -4142.3756      833.74728     -3952.656       24.988142      24.988142      24.988142      953.49713      100.09959      1447.6451    
     19400   296.66627     -5019.3654     -4114.7205      1428.6797     -3791.453       24.941185      24.941185      24.941185      2058.614       269.09068      1958.3344    
     19500   317.9734      -5078.5525     -4108.9344      483.65202     -3999.3798      24.950188      24.950188      24.950188      735.24396     -326.3112       1042.0233    
     19600   302.86527     -5082.4917     -4158.9438      674.94794     -4005.105       25.001912      25.001912      25.001912      1074.4995      401.46796      548.87637    
     19700   298.12832     -5058.7013     -4149.5982     -962.15299     -4370.9648      25.080183      25.080183      25.080183     -1484.908      -950.68993     -450.86109    
     19800   289.93055     -5010.8572     -4126.7521      109.45919     -4101.4153      25.13086       25.13086       25.13086       1353.746      -652.80038     -372.56801    
     19900   303.81718     -5014.5283     -4088.0777     -178.41196     -4129.5397      25.164226      25.164226      25.164226      1305.8052     -1208.1197     -632.92131    
     20000   307.33613     -5004.5028     -4067.3216      216.55347     -4016.8936      25.181235      25.181235      25.181235     -25.64681       512.82979      162.47743    
     20100   283.99512     -4975.1275     -4109.1216     -344.48592     -4189.5261      25.200603      25.200603      25.200603      181.2229       570.22502     -1784.9057    
     20200   292.2157      -5045.4402     -4154.3668     -112.23001     -4180.5546      25.198319      25.198319      25.198319     -406.19139      322.04427     -252.54292    
     20300   298.33207     -5065.3838     -4155.6594     -18.607954     -4159.9934      25.182934      25.182934      25.182934     -392.67077     -185.31595      522.16285    
     20400   291.49701     -5043.6248     -4154.7429     -419.97621     -4252.3865      25.167942      25.167942      25.167942     -373.55046     -1111.8844      225.50622    
     20500   311.84039     -5038.5219     -4087.6056     -660.25096     -4240.839       25.152982      25.152982      25.152982     -358.68078      111.49707     -1733.5692    
     20600   291.92205     -4988.594      -4098.4161      428.047       -3999.4013      25.125281      25.125281      25.125281      476.37338      726.51749      81.25012     
     20700   298.52783     -5019.7217     -4109.4003     -326.55594     -4184.6923      25.097967      25.097967      25.097967     -704.1563       595.36153     -870.87306    
     20800   288.03633     -5045.4806     -4167.1517      1121.9056     -3909.4565      25.066363      25.066363      25.066363      1860.0247      660.21346      845.47874    
     20900   305.82176     -5104.4987     -4171.9354      225.32961     -4120.0499      25.087114      25.087114      25.087114     -578.44357      587.27178      667.16063    
     21000   299.82766     -5053.4383     -4139.1532     -160.81608     -4176.3822      25.13189       25.13189       25.13189      -370.13972      145.21576     -257.52428    
     21100   315.19993     -5052.0956     -4090.9348      222.0951      -4039.2876      25.16967       25.16967       25.16967       614.19102     -130.1954       182.28967    
     21200   304.70157     -5037.6754     -4108.5279      521.48116     -3986.5366      25.219599      25.219599      25.219599      1039.6866      332.75151      192.00537    
     21300   297.72364     -5049.8608     -4141.9916     -176.79077     -4183.7217      25.295187      25.295187      25.295187      353.80876     -1083.5766      199.39554    
     21400   301.38915     -5066.1239     -4147.0773     -825.52734     -4343.2685      25.352692      25.352692      25.352692     -1753.3633     -735.67497      12.456209    
     21500   291.56753     -5061.5151     -4172.4182     -466.06442     -4283.3031      25.361999      25.361999      25.361999     -927.07926      237.11485     -708.22885    
     21600   290.04251     -5058.1821     -4173.7355     -74.664554     -4191.4739      25.34979       25.34979       25.34979      -470.51038      645.72329     -399.20656    
     21700   292.28821     -5036.6652     -4145.3707     -115.46907     -4172.7636      25.337605      25.337605      25.337605     -5.9125766     -583.5229       243.02828    
     21800   312.44986     -5060.1167     -4107.3419      1046.0126     -3859.1497      25.339134      25.339134      25.339134      1857.0951      1105.7881      175.15459    
     21900   307.26621     -5045.0172     -4108.0492     -304.91077     -4180.7849      25.384363      25.384363      25.384363     -868.80408     -578.23525      532.30701    
     22000   298.9949      -5069.9812     -4158.2355     -771.79809     -4342.5469      25.393595      25.393595      25.393595     -695.63257     -481.86882     -1137.8929    
     22100   296.59182     -5077.0598     -4172.642      -850.93867     -4374.769       25.348371      25.348371      25.348371      72.310326     -981.10822     -1644.0181    
     22200   294.64555     -5055.2674     -4156.7845      76.188766     -4138.8298      25.281549      25.281549      25.281549     -702.95163      290.36439      641.15353    
     22300   306.29602     -5048.5954     -4114.5859      71.167254     -4097.9188      25.229073      25.229073      25.229073      53.687271      120.58947      39.225019    
     22400   310.87269     -5045.4655     -4097.5001     -94.915551     -4119.5881      25.175695      25.175695      25.175695     -153.29246     -132.30673      0.85253648   
     22500   305.26801     -5046.4632     -4115.5884      340.49276     -4036.6721      25.141682      25.141682      25.141682      256.47417      226.6105       538.39362    
     22600   319.58941     -5135.0483     -4160.5023     -399.66112     -4253.0499      25.134239      25.134239      25.134239      301.27649     -958.22598     -542.03386    
     22700   298.89516     -5113.2511     -4201.8096     -85.430213     -4221.5868      25.131925      25.131925      25.131925     -919.3254       932.67289     -269.63813    
     22800   296.03842     -5107.8602     -4205.1299     -482.00097     -4316.5109      25.116691      25.116691      25.116691     -1634.975       368.65847     -179.68639    
     22900   302.06528     -5114.0483     -4192.9399      348.67875     -4112.6411      25.088181      25.088181      25.088181      306.55835     -248.2943       987.77219    
     23000   302.85336     -5061.3347     -4137.8232      603.2482      -3999.2554      25.066679      25.066679      25.066679      854.95607      557.48712      397.30141    
     23100   300.50616     -5060.4855     -4144.1314      748.99304     -3972.0468      25.068566      25.068566      25.068566      1008.0799      528.16886      710.73036    
     23200   299.95748     -5075.8203     -4161.1394     -24.237639     -4166.7373      25.112308      25.112308      25.112308      49.542788     -611.57318      489.31747    
     23300   293.48829     -5059.2113     -4164.2573     -118.90431     -4191.8944      25.165552      25.165552      25.165552      616.19641      398.28679     -1371.1961    
     23400   284.76124     -5009.6571     -4141.315       89.56838      -4120.4034      25.203013      25.203013      25.203013     -39.261711      581.78694     -273.82009    
     23500   299.91247     -4984.084      -4069.5403      445.75376     -3965.1459      25.229126      25.229126      25.229126      612.33319     -93.407207      818.33529    
     23600   302.24962     -4984.2945     -4062.6239     -767.26641     -4242.8546      25.254314      25.254314      25.254314     -744.67918      37.354173     -1594.4742    
     23700   296.90972     -5005.5009     -4100.1137     -275.88867     -4164.6697      25.221779      25.221779      25.221779      508.9854      -776.73056     -559.92085    
     23800   296.44679     -5045.1616     -4141.186       1088.7883     -3888.229       25.161844      25.161844      25.161844      1667.5672      1154.9509      443.84664    
     23900   291.4041      -5046.5234     -4157.9248      176.90972     -4116.85        25.156457      25.156457      25.156457      422.7702      -89.039397      196.99835    
     24000   301.61958     -5074.2544     -4154.5051     -539.47906     -4279.8812      25.164487      25.164487      25.164487     -517.8052      -453.39618     -647.23579    
     24100   295.87397     -5052.2647     -4150.0358     -330.71495     -4226.8005      25.154207      25.154207      25.154207     -453.37636     -368.672       -170.0965     
     24200   309.31331     -5057.6508     -4114.4405     -331.76635     -4191.148       25.121362      25.121362      25.121362      1008.3189     -980.32718     -1023.2908    
     24300   306.20968     -5042.4705     -4108.7243      598.39245     -3971.0692      25.078995      25.078995      25.078995      563.62208      889.67546      341.87981    
     24400   285.97478     -5034.6201     -4162.5775     -119.72753     -4190.0837      25.068024      25.068024      25.068024     -29.171889     -615.94147      285.93078    
     24500   287.71857     -5061.4349     -4184.0749      81.518328     -4165.3412      25.070563      25.070563      25.070563     -501.1517       541.01037      204.69631    
     24600   298.25058     -5065.9171     -4156.4411      626.5061      -4012.3637      25.076384      25.076384      25.076384      739.90631      1289.0822     -149.47016    
     24700   300.60711     -5055.6381     -4138.9762      698.84694     -3977.4219      25.120029      25.120029      25.120029     -569.7242       1764.7712      901.49387    
     24800   308.44499     -5046.8819     -4106.3194     -129.46781     -4136.4835      25.185517      25.185517      25.185517     -578.56422     -21.951149      212.11192    
     24900   305.57872     -5047.8666     -4116.0444     -49.118429     -4127.5556      25.234852      25.234852      25.234852     -942.00389      385.06865      409.57995    
     25000   300.54767     -5064.4335     -4147.9529     -852.66892     -4348.7257      25.274519      25.274519      25.274519     -845.88269     -1587.9438     -124.18027    
     25100   287.73512     -5049.5819     -4172.1714     -63.994908     -4187.2884      25.301603      25.301603      25.301603     -132.20861     -487.69201      427.91589    
     25200   297.8398      -5057.5138     -4149.2904     -79.603625     -4168.1443      25.323899      25.323899      25.323899      91.405564     -233.36486     -96.85158     
     25300   299.53649     -5020.8234     -4107.4262     -84.157366     -4127.3592      25.324141      25.324141      25.324141      490.84835      136.57197     -879.89242    
     25400   300.72697     -5020.0554     -4103.028       210.28706     -4053.1633      25.333864      25.333864      25.333864     -120.36891      407.86174      343.36836    
     25500   299.89604     -5030.0643     -4115.5707     -743.5661      -4292.0686      25.342414      25.342414      25.342414     -209.98244     -1072.6843     -948.03152    
     25600   300.82976     -5028.3092     -4110.9683     -899.1728      -4324.0549      25.328667      25.328667      25.328667     -733.56172     -911.12996     -1052.8267    
     25700   313.05993     -5056.4158     -4101.7806      125.24066     -4072.2364      25.290087      25.290087      25.290087      456.79354      569.23157     -650.30312    
     25800   293.13279     -5033.107      -4139.2371     -448.23617     -4244.6773      25.266273      25.266273      25.266273     -201.81907     -848.33659     -294.55286    
     25900   298.17897     -5087.6774     -4178.4198     -312.78345     -4251.6791      25.229827      25.229827      25.229827      500.26697     -1097.2658     -341.35147    
     26000   311.42776     -5100.2417     -4150.5837      103.99591     -4126.377       25.177608      25.177608      25.177608      699.79307      334.20478     -722.01013    
     26100   300.80339     -5068.301      -4151.0406     -109.31801     -4176.366       25.137952      25.137952      25.137952     -359.02004      270.65034     -239.58433    
     26200   296.81967     -5059.9263     -4154.8137      447.59125     -4051.3261      25.121385      25.121385      25.121385      684.69998      31.341046      626.73272    
     26300   299.57612     -5052.2976     -4138.7796      324.8972      -4063.492       25.140112      25.140112      25.140112      303.99245      814.22523     -143.52608    
     26400   307.88379     -5023.9125     -4085.0613      392.95286     -3993.6343      25.174023      25.174023      25.174023      1168.2479     -205.22443      215.83513    
     26500   307.55345     -4988.1688     -4050.3249      428.93805     -3949.9574      25.221699      25.221699      25.221699      128.59348      1212.341      -54.120379    
     26600   308.48766     -5002.5733     -4061.8807      124.02361     -4032.6328      25.287437      25.287437      25.287437      47.896989      41.386673      282.78716    
     26700   295.57612     -5009.0315     -4107.7109     -317.232       -4183.0787      25.349975      25.349975      25.349975     -620.2083       264.54137     -596.02908    
     26800   297.39555     -5002.3551     -4095.4864     -899.04757     -4309.7452      25.376204      25.376204      25.376204     -1290.9986     -916.29315     -489.85095    
     26900   298.02404     -5004.5289     -4095.7437      108.01532     -4070.0348      25.365323      25.365323      25.365323      1287.3436      152.81207     -1116.1097    
     27000   290.91252     -5008.2909     -4121.1914      90.51143      -4099.7148      25.339319      25.339319      25.339319     -377.78166     -198.78365      848.0996     
     27100   293.99788     -5050.8525     -4154.3446     -56.094927     -4167.5904      25.298385      25.298385      25.298385      298.00847      524.65766     -990.95091    
     27200   286.39506     -5024.5063     -4151.1821      498.11952     -4034.1754      25.254209      25.254209      25.254209      1508.7342      375.05551     -389.43117    
     27300   309.28296     -5044.2224     -4101.1046      399.11626     -4007.5657      25.235132      25.235132      25.235132      88.075431      420.19852      689.07484    
     27400   297.21448     -5013.3528     -4107.0363      749.94822     -3930.981       25.249183      25.249183      25.249183      1366.3541      215.11278      668.3778     
     27500   300.41438     -5005.2552     -4089.1809      152.95613     -4053.0512      25.301186      25.301186      25.301186      238.66405      470.05107     -249.84673    
     27600   296.55249     -5017.2564     -4112.9585     -620.1788      -4260.4913      25.360934      25.360934      25.360934      255.04497     -1382.5113     -733.07008    
     27700   290.65731     -5013.2892     -4126.968      -168.15568     -4167.0845      25.385092      25.385092      25.385092      364.31324      23.936025     -892.7163     
     27800   301.09464     -5039.1056     -4120.9571     -92.366963     -4142.9648      25.374308      25.374308      25.374308      206.08578     -147.31055     -335.87612    
     27900   297.47858     -4982.2455     -4075.1236     -77.526568     -4093.5593      25.35775       25.35775       25.35775      -77.603817      269.29365     -424.26954    
     28000   303.23301     -4975.0533     -4050.384       838.46667     -3851.3487      25.342891      25.342891      25.342891      1590.7457      959.7297      -35.075385    
     28100   303.24331     -4986.1728     -4061.4721     -75.496562     -4079.3941      25.343189      25.343189      25.343189     -536.90548      495.49194     -185.07615    
     28200   297.50314     -4985.1359     -4077.9391     -443.39606     -4183.0715      25.333173      25.333173      25.333173      602.11355     -145.72163     -1786.5801    
     28300   292.64602     -5016.462      -4124.0764     -304.53629     -4195.955       25.294626      25.294626      25.294626      490.32175     -305.30279     -1098.6278    
     28400   286.68233     -5062.583      -4188.3829     -164.42312     -4226.8526      25.220876      25.220876      25.220876     -1021.5522     -42.756882      571.03974    
     28500   289.40233     -5076.3368     -4193.8424      1043.4863     -3952.3779      25.128328      25.128328      25.128328      997.50507      1284.1624      848.79132    
     28600   299.73533     -5078.2506     -4164.2471      915.67183     -3953.5016      25.083082      25.083082      25.083082      2367.4954      449.67093     -70.150858    
     28700   298.43221     -5082.7138     -4172.684       69.253268     -4156.7139      25.09939       25.09939       25.09939       588.77202     -812.88992      431.87771    
     28800   289.42473     -5053.6468     -4171.0841      596.77975     -4032.8517      25.136606      25.136606      25.136606      413.05749      1425.2754     -47.993683    
     28900   303.15301     -5081.9594     -4157.5341      457.08056     -4051.1491      25.176996      25.176996      25.176996      1213.1006      360.23        -202.08895    
     29000   298.10103     -5062.2342     -4153.2142     -385.54608     -4243.4281      25.22166       25.22166       25.22166       98.810876     -1001.2523     -254.19681    
     29100   307.42984     -5098.2514     -4160.7845     -37.09814      -4169.5038      25.259179      25.259179      25.259179      37.754234     -125.82619     -23.222465    
     29200   297.1574      -5058.31       -4152.1675     -320.14797     -4227.6013      25.280156      25.280156      25.280156      128.07879     -259.7578      -828.76492    
     29300   315.31758     -5080.6731     -4119.1535     -30.899175     -4126.4395      25.286538      25.286538      25.286538      200.59641     -316.14328      22.849345    
     29400   297.52674     -5021.984      -4114.7153     -258.36713     -4175.7074      25.296092      25.296092      25.296092     -900.33792     -101.16423      226.40075    
     29500   290.8787      -5012.1239     -4125.1275     -728.37405     -4297.0034      25.292683      25.292683      25.292683     -1058.9671     -768.22602     -357.92898    
     29600   308.86201     -5087.8922     -4146.058      -328.09621     -4223.1788      25.259892      25.259892      25.259892     -276.85343     -141.59625     -565.83894    
     29700   292.95382     -5078.3014     -4184.9772      393.93457     -4092.9517      25.207868      25.207868      25.207868      93.373168      837.5257       250.90484    
     29800   301.15289     -5125.0998     -4206.7736      1026.5341     -3967.4434      25.191232      25.191232      25.191232      1149.4694      367.21383      1562.9191    
     29900   294.46074     -5113.0183     -4215.099       559.83934     -4083.8919      25.235154      25.235154      25.235154      575.19982      1221.8331     -117.51486    
     30000   291.3669      -5101.7147     -4213.2296     -706.94262     -4380.1844      25.299559      25.299559      25.299559     -672.02365     -333.48233     -1115.3219    
     30100   298.28648     -5055.708      -4146.1225      97.695991     -4122.9675      25.329761      25.329761      25.329761      128.71653      340.01339     -175.64194    
     30200   303.34646     -5044.555      -4119.5398      240.31022     -4062.471       25.346424      25.346424      25.346424      477.06868     -11.820504      255.68249    
     30300   301.42808     -5044.1879     -4125.0225     -155.96554     -4162.1476      25.366129      25.366129      25.366129     -1120.6401      559.84367      92.899816    
     30400   298.02056     -5084.591      -4175.8164     -322.61114     -4252.676       25.373538      25.373538      25.373538     -972.80818     -603.36401      608.33878    
     30500   294.76272     -5101.0105     -4202.1703     -481.79913     -4316.4783      25.338342      25.338342      25.338342      55.939699     -980.19289     -521.14419    
     30600   294.55471     -5074.8842     -4176.6783      449.73144     -4070.5993      25.289103      25.289103      25.289103      1157.3861      794.35193     -602.54372    
     30700   287.30644     -5055.9794     -4179.8761      310.88838     -4106.783       25.26186       25.26186       25.26186       328.83894     -30.872879      634.69909    
     30800   298.63626     -5076.6734     -4166.0213      1012.4204     -3928.2787      25.251671      25.251671      25.251671      1076.3615      1212.0988      748.80086    
     30900   297.36602     -5062.5767     -4155.798       614.01488     -4011.1326      25.279586      25.279586      25.279586      395.97242      3.1497185      1442.9225    
     31000   294.41987     -5059.3423     -4161.5475      34.314046     -4153.4103      25.334333      25.334333      25.334333      378.76853     -370.35904      94.532653    
     31100   302.18413     -5083.3863     -4161.9155     -1105.2804     -4425.6568      25.386914      25.386914      25.386914     -926.58646     -1148.827      -1240.4278    
     31200   298.60408     -5069.7073     -4159.1534     -442.96057     -4264.8526      25.386936      25.386936      25.386936     -718.23568     -435.76859     -174.87746    
     31300   300.68658     -5046.1067     -4129.2024      252.18671     -4069.1239      25.373118      25.373118      25.373118      315.63945     -541.71389      982.63457    
     31400   292.81396     -5020.164      -4127.2663      15.606874     -4123.5496      25.369958      25.369958      25.369958      348.06089     -250.50926     -50.731014    
     31500   293.18782     -5027.796      -4133.7582     -369.97763     -4221.7004      25.354121      25.354121      25.354121     -1630.5473      4.5111859      516.10322    
     31600   307.49248     -5036.4086     -4098.7507      370.49102     -4010.92        25.33169       25.33169       25.33169      -45.927842      936.81141      220.58948    
     31700   310.13484     -5027.7183     -4082.0028     -201.65188     -4129.7368      25.319197      25.319197      25.319197     -639.02722      27.789959      6.2816266    
     31800   306.40867     -5039.2653     -4104.9123     -326.60289     -4182.0528      25.300485      25.300485      25.300485     -1319.8802     -156.28321      496.3547     
     31900   291.79018     -5061.4086     -4171.6327     -86.164129     -4191.9243      25.275793      25.275793      25.275793      543.06571     -151.49712     -650.06098    
     32000   296.34534     -5069.7557     -4166.0895     -85.236199     -4186.0931      25.246587      25.246587      25.246587     -250.38273      214.05722     -219.38309    
     32100   298.47429     -5046.9895     -4136.8313      950.10268     -3914.5687      25.219704      25.219704      25.219704      419.97738      1805.8887      624.44195    
     32200   308.88324     -5063.9259     -4122.027      -283.58913     -4188.5112      25.237762      25.237762      25.237762     -962.10126      591.76663     -480.43276    
     32300   310.56541     -5026.1911     -4079.1626      491.74845     -3963.5004      25.265284      25.265284      25.265284      624.86096      197.20131      653.18308    
     32400   314.21184     -4992.8493     -4034.7015     -257.14056     -4095.4618      25.304112      25.304112      25.304112     -275.11262      251.14069     -747.44975    
     32500   299.81652     -4994.9088     -4080.6577      365.18957     -3994.0546      25.334549      25.334549      25.334549      928.16355     -71.558341      238.9635     
     32600   310.35403     -5046.9069     -4100.523      -893.43128     -4313.005       25.358779      25.358779      25.358779     -1318.6967     -915.32338     -446.27377    
     32700   301.90252     -5040.8934     -4120.2813      320.67518     -4044.1509      25.343826      25.343826      25.343826      211.65933      212.29607      538.07015    
     32800   306.09719     -5066.0426     -4132.6394      522.07521     -4008.867       25.332128      25.332128      25.332128      573.4001       1277.5089     -284.68342    
     32900   296.62557     -5075.6288     -4171.1081     -245.70768     -4229.51        25.353863      25.353863      25.353863      233.53469      163.95485     -1134.6126    
     33000   280.50882     -5058.1282     -4202.7534      173.96082     -4161.2734      25.38071       25.38071       25.38071       1652.8884     -530.24545     -600.76045    
     33100   288.71636     -5056.1755     -4175.7728     -374.81311     -4265.3212      25.397383      25.397383      25.397383      88.356157     -613.10482     -599.69068    
     33200   307.5251      -5072.1463     -4134.3889      1.868652      -4133.9427      25.392034      25.392034      25.392034      909.25705     -365.87048     -537.78062    
     33300   294.22669     -5026.0469     -4128.8412      393.10038     -4035.205       25.372013      25.372013      25.372013      445.56903      781.65907     -47.926952    
     33400   311.35912     -5064.4128     -4114.9641      199.63424     -4067.4568      25.363924      25.363924      25.363924      92.962879      801.10213     -295.16228    
     33500   293.88981     -5010.711      -4114.5326     -245.79893     -4173.1608      25.383418      25.383418      25.383418      151.88268      109.18223     -998.46171    
     33600   291.83635     -5020.5248     -4130.6082     -255.2109      -4191.5303      25.390227      25.390227      25.390227      83.246324     -706.28434     -142.59467    
     33700   306.88105     -5062.8407     -4127.0472     -223.66535     -4180.3514      25.376333      25.376333      25.376333     -234.40998     -233.44799     -203.13806    
     33800   304.5644      -5062.6888     -4133.9596     -130.484       -4164.9798      25.355407      25.355407      25.355407      707.86539     -552.64733     -546.67005    
     33900   294.80278     -5067.4714     -4168.509       279.20113     -4102.4339      25.317157      25.317157      25.317157      652.13165      651.379       -465.90726    
     34000   296.77907     -5080.6092     -4175.6204      182.13249     -4132.7096      25.27945       25.27945       25.27945      -347.95516      1273.7178     -379.36521    
     34100   299.72009     -5046.5423     -4132.5852      752.73769     -3955.6628      25.259288      25.259288      25.259288      1011.0162      918.81667      328.38014    
     34200   298.96474     -5039.3809     -4127.7272     -73.071361     -4144.9348      25.275462      25.275462      25.275462     -34.040198      200.14107     -385.31495    
     34300   293.62479     -5011.1167     -4115.7464      35.781545     -4107.2932      25.302405      25.302405      25.302405      1058.0424     -314.44093     -636.25684    
     34400   303.12024     -5001.3241     -4076.9988      49.151723     -4065.3861      25.303043      25.303043      25.303043      80.487294      384.59427     -317.62639    
     34500   309.56952     -5011.0226     -4067.031      -342.2882      -4147.84        25.296704      25.296704      25.296704     -733.9293       510.61677     -803.55207    
     34600   315.39148     -5014.9734     -4053.2285      476.56391     -3940.8413      25.287545      25.287545      25.287545      1073.07       -35.111967      391.73369    
     34700   291.78164     -5006.8107     -4117.0609     -798.82449     -4305.4767      25.288907      25.288907      25.288907      111.70507     -1557.045      -951.1335     
     34800   300.9197      -5033.8057     -4116.1906     -450.63816     -4222.1125      25.259647      25.259647      25.259647     -80.394232     -848.32222     -423.19804    
     34900   305.19758     -5015.4335     -4084.7735      199.58009     -4038.056       25.224869      25.224869      25.224869      969.46919     -111.4175      -259.31143    
     35000   305.63033     -5013.9992     -4082.0197      72.032915     -4065.19        25.209034      25.209034      25.209034     -193.14918      129.00007      280.24785    
     35100   309.20554     -5018.2924     -4075.4107      154.69721     -4039.2783      25.206517      25.206517      25.206517     -25.628998     -520.48842      1010.209     
     35200   317.00366     -4983.0131     -4016.3521     -257.6826      -4076.6803      25.22628       25.22628       25.22628       285.50612     -553.03109     -505.52283    
     35300   317.11321     -4983.0412     -4016.0461     -183.97016     -4059.3166      25.265193      25.265193      25.265193     -780.74349      113.83073      115.00228    
     35400   302.97782     -4994.598      -4070.707      -421.88529     -4170.3678      25.301801      25.301801      25.301801      483.42853     -596.11367     -1152.9707    
     35500   299.34387     -5005.1966     -4092.3868     -343.66265     -4173.7419      25.319717      25.319717      25.319717     -557.01698     -113.29799     -360.67299    
     35600   283.3107      -4981.9309     -4118.0122     -546.21754     -4247.0502      25.302227      25.302227      25.302227     -875.6975      -239.76692     -523.18821    
     35700   298.02827     -5006.329      -4097.5309      260.77139     -4036.2153      25.262622      25.262622      25.262622      681.96533      836.45504     -736.10621    
     35800   302.00662     -4974.7826     -4053.8531     -104.80594     -4078.4043      25.231141      25.231141      25.231141      216.62331      302.06984     -833.11096    
     35900   316.82322     -4988.7752     -4022.6644      1136.1874     -3757.4146      25.202469      25.202469      25.202469      854.44835      1263.5508      1290.5629    
     36000   299.63789     -5003.4709     -4089.7645      297.50554     -4020.1377      25.223304      25.223304      25.223304     -148.05567      441.60105      598.97124    
     36100   299.97137     -5018.8661     -4104.1428     -406.79839     -4199.8186      25.264788      25.264788      25.264788     -438.60681     -802.86003      21.071682    
     36200   295.34384     -5014.6084     -4113.9962     -624.85405     -4261.2277      25.280295      25.280295      25.280295     -403.51272     -809.67743     -661.372      
     36300   299.13262     -5010.1954     -4098.0298     -403.76461     -4193.0008      25.265564      25.265564      25.265564     -185.59677      318.46446     -1344.1615    
     36400   309.50727     -5040.5976     -4096.7958      14.880284     -4093.3064      25.239951      25.239951      25.239951      413.45122      235.06178     -603.87215    
     36500   300.43262     -5036.2694     -4120.1396      279.73042     -4054.6846      25.221775      25.221775      25.221775      755.7595       164.29064     -80.858879    
     36600   288.02789     -5040.8712     -4162.568      -223.91292     -4215.0278      25.232318      25.232318      25.232318      268.98284     -94.820548     -845.90105    
     36700   302.90507     -5068.0811     -4144.4119     -292.17896     -4212.9002      25.236584      25.236584      25.236584     -117.12911      408.01137     -1167.4191    
     36800   306.11499     -5067.7476     -4134.2902     -585.22244     -4271.2321      25.222019      25.222019      25.222019     -513.29602     -485.20157     -757.16972    
     36900   307.88987     -5056.7798     -4117.91        159.54883     -4080.7199      25.189496      25.189496      25.189496      579.37666     -559.89875      459.16857    
     37000   299.3824      -5039.5293     -4126.602       367.37253     -4041.1092      25.175752      25.175752      25.175752      146.68448      358.51506      596.91805    
     37100   298.24056     -5039.4019     -4129.9565     -319.21746     -4204.1989      25.170772      25.170772      25.170772     -278.1981      -865.67994      186.22567    
     37200   309.65169     -5017.1497     -4072.9075      498.63679     -3957.1431      25.155808      25.155808      25.155808      842.86655      688.94865     -35.904815    
     37300   308.06805     -4993.8053     -4054.3922      524.6014      -3932.5423      25.159764      25.159764      25.159764      294.58294      412.18364      867.03764    
     37400   297.37782     -5018.7933     -4111.9786      186.96987     -4068.3843      25.191903      25.191903      25.191903      979.6667       564.20012     -982.9572     
     37500   293.03493     -5030.5926     -4137.0211     -70.049897     -4153.4117      25.221487      25.221487      25.221487      2.8482084      533.39595     -746.39385    
     37600   297.73943     -5017.8568     -4109.9395     -92.409141     -4131.6035      25.237661      25.237661      25.237661     -367.73352      181.97122     -91.465125    
     37700   314.49302     -5024.2979     -4065.2927      196.12292     -4019.1749      25.263186      25.263186      25.263186      411.5156      -357.75163      534.60478    
     37800   301.0717      -5012.3908     -4094.3122     -779.33809     -4278.4291      25.30253       25.30253       25.30253      -1095.4058     -507.68747     -734.92101    
     37900   290.58753     -5036.8277     -4150.7192     -819.107       -4344.0987      25.296744      25.296744      25.296744     -773.97907     -990.11898     -693.22295    
     38000   309.08294     -5081.999      -4139.4912     -666.2133      -4295.6207      25.234725      25.234725      25.234725     -709.54369     -1444.1063      155.01007    
     38100   307.07971     -5077.8202     -4141.4209     -141.16343     -4174.2233      25.163383      25.163383      25.163383     -345.84117     -23.951616     -53.697511    
     38200   294.88975     -5040.6088     -4141.3813      736.20852     -3971.1109      25.123921      25.123921      25.123921     -65.880503      1464.6212      809.88483    
     38300   306.3947      -5066.7423     -4132.4319     -564.17334     -4263.1193      25.137097      25.137097      25.137097     -148.2163      -920.28463     -624.01909    
     38400   297.50591     -5035.6227     -4128.4175     -230.40967     -4181.7554      25.131589      25.131589      25.131589      923.01426     -903.18559     -711.05767    
     38500   298.91558     -5040.5409     -4129.037       156.04711     -4092.9949      25.112674      25.112674      25.112674     -170.69426      175.39585      463.43975    
     38600   307.7953      -5093.3474     -4154.766      -359.44887     -4237.6758      25.101381      25.101381      25.101381     -802.08907     -30.125074     -246.13247    
     38700   290.78626     -5084.8782     -4198.1636      115.82255     -4171.469       25.094865      25.094865      25.094865     -129.48694     -782.95597      1259.9106    
     38800   296.43052     -5080.3134     -4176.3875      866.24362     -3976.4473      25.106994      25.106994      25.106994      570.86887      525.92405      1501.9379    
     38900   300.9325      -5068.2693     -4150.6151      372.06394     -4064.3674      25.14305       25.14305       25.14305       1288.4013      131.42287     -303.63237    
     39000   290.04573     -5046.1739     -4161.7175     -733.5661      -4332.6445      25.186349      25.186349      25.186349     -689.30879     -1017.7021     -493.68742    
     39100   298.30149     -5061.9749     -4152.3437     -1040.3338     -4394.7987      25.188029      25.188029      25.188029     -1218.581      -816.5949      -1085.8256    
     39200   313.46605     -5095.8006     -4139.927       178.04774     -4098.6333      25.147256      25.147256      25.147256      606.99178     -678.70894      605.86038    
     39300   296.17114     -5065.9445     -4162.8095      331.54178     -4086.2265      25.113438      25.113438      25.113438      195.63858      333.05295      465.9338     
     39400   295.08348     -5117.0705     -4217.2522     -668.11716     -4371.232       25.094489      25.094489      25.094489     -1480.2088      348.91379     -873.05643    
     39500   295.09331     -5123.4793     -4223.631       117.84528     -4196.5448      25.071848      25.071848      25.071848      447.73902      714.43305     -808.63624    
     39600   300.28856     -5113.6198     -4197.9293     -130.73043     -4227.9243      25.057176      25.057176      25.057176      310.96574     -131.81445     -571.34259    
     39700   299.70454     -5095.4182     -4181.5085      105.56866     -4157.3459      25.036739      25.036739      25.036739      344.25346     -538.84824      511.30077    
     39800   306.07947     -5091.9866     -4158.6374      108.58545     -4133.7688      25.041962      25.041962      25.041962      159.86133      988.2444      -822.34937    
     39900   304.48474     -5074.736      -4146.2498      137.83298     -4114.572       25.071202      25.071202      25.071202      211.48464     -630.72852      832.74282    
     40000   297.42269     -5096.4469     -4189.4955      345.69218     -4109.7418      25.103157      25.103157      25.103157      412.66495      481.50458      142.90701    
     40100   291.80065     -5113.5275     -4223.7198      11.294059     -4221.1006      25.146491      25.146491      25.146491     -759.47071      686.99341      106.35947    
     40200   287.84852     -5093.3595     -4215.6032      490.99525     -4101.2118      25.185279      25.185279      25.185279      247.05425      464.59369      761.33782    
     40300   296.14824     -5072.2649     -4169.1998     -874.14859     -4373.6936      25.219688      25.219688      25.219688     -1540.2011     -402.55391     -679.69075    
     40400   294.64716     -5051.7795     -4153.2917     -282.51009     -4219.4306      25.226043      25.226043      25.226043     -1133.5025      660.86814     -374.89593    
     40500   304.96249     -5075.4028     -4145.4598      312.27427     -4072.4846      25.21086       25.21086       25.21086       114.40627      189.88379      632.53273    
     40600   287.92709     -5041.8678     -4163.872       76.757544     -4145.9568      25.200423      25.200423      25.200423      91.59656       407.83957     -269.1635     
     40700   313.4356      -5101.7246     -4145.9439     -402.05218     -4239.6965      25.192716      25.192716      25.192716     -372.19711      260.06145     -1094.0209    
     40800   288.81112     -5096.5192     -4215.8277      749.99716     -4040.9983      25.189892      25.189892      25.189892      1092.4174      777.15202      380.42207    
     40900   285.56371     -5107.967      -4237.178      -94.071116     -4259.2183      25.232574      25.232574      25.232574     -250.00805      553.40737     -585.61266    
     41000   287.27377     -5067.685      -4191.6814      286.27879     -4124.2771      25.274009      25.274009      25.274009      35.551587      551.64057      271.64422    
     41100   301.60511     -5058.0393     -4138.3341     -387.52791     -4229.8493      25.299077      25.299077      25.299077     -989.56222     -648.83078      475.80928    
     41200   299.92537     -5018.0971     -4103.5141      152.44798     -4067.4728      25.308579      25.308579      25.308579      123.66563     -101.4397       435.11802    
     41300   299.48626     -4996.4303     -4083.1863     -3.8997853     -4084.1078      25.304555      25.304555      25.304555     -786.99541      207.05046      568.24559    
     41400   303.41375     -5035.3231     -4110.1027      327.37078     -4032.8041      25.29795       25.29795       25.29795      -22.329004      536.00811      468.43325    
     41500   295.13644     -5068.4878     -4168.508      -148.79964     -4203.6286      25.294604      25.294604      25.294604     -30.151223      137.8412      -554.08889    
     41600   296.20486     -5070.3687     -4167.1309      314.81218     -4092.9349      25.282362      25.282362      25.282362      465.26266      931.6744      -452.50051    
     41700   293.70466     -5059.3663     -4163.7525      495.21853     -4047.1815      25.271979      25.271979      25.271979      1460.0816     -276.3503       301.9243     
     41800   293.58632     -5047.4245     -4152.1716      255.87046     -4091.9899      25.265201      25.265201      25.265201      414.47492     -60.868658      414.00512    
     41900   301.27721     -5008.2404     -4089.5351      765.83595     -3909.564       25.25789       25.25789       25.25789       1321.9505      614.62124      360.93606    
     42000   306.71108     -5014.2062     -4078.931      -455.33732     -4186.1332      25.273462      25.273462      25.273462     -1063.3797      139.19363     -441.82592    
     42100   292.37388     -4997.7822     -4106.2264     -189.09145     -4150.7958      25.283054      25.283054      25.283054     -247.93835     -385.86973      66.533738    
     42200   285.77555     -5032.9305     -4161.4954     -638.75757     -4311.6781      25.262089      25.262089      25.262089     -682.17198     -60.017553     -1174.0832    
     42300   282.02827     -5042.4701     -4182.4619     -574.85518     -4316.282       25.178449      25.178449      25.178449     -1827.9236      32.600731      70.757361    
     42400   309.14667     -5089.9506     -4147.2485      1203.7649     -3871.5284      25.042842      25.042842      25.042842      273.32945      1170.8011      2167.164     
     42500   299.61154     -5061.0967     -4147.4707      840.6445      -3956.6486      24.967788      24.967788      24.967788      910.68458      1307.6818      303.56708    
     42600   301.36959     -5081.484      -4162.4971      626.51047     -4020.4758      24.956466      24.956466      24.956466      185.71135      1197.8215      495.99854    
     42700   299.10809     -5092.2222     -4180.1314      867.35805     -3982.7043      24.990646      24.990646      24.990646      292.69577      765.35751      1544.0209    
     42800   295.68266     -5121.6503     -4220.0048     -58.37365      -4233.3885      25.051155      25.051155      25.051155      369.40512     -946.97095      402.44488    
     42900   299.76206     -5116.2473     -4202.1623     -240.4763      -4257.5945      25.096007      25.096007      25.096007     -1341.0711      104.75873      514.8835     
     43000   306.34127     -5066.4179     -4132.2704      274.71924     -4068.6782      25.131188      25.131188      25.131188      428.75078      401.03622     -5.6292936    
     43100   299.19775     -5015.2801     -4102.9159     -165.17069     -4141.3005      25.164179      25.164179      25.164179     -772.50894      229.77345      47.223409    
     43200   306.50669     -5022.8568     -4088.205      -762.84464     -4265.8333      25.180641      25.180641      25.180641     -792.02704     -1284.1576     -212.34926    
     43300   295.00008     -5007.7369     -4108.1728      639.01735     -3959.6527      25.165117      25.165117      25.165117      877.78991      844.18105      195.08108    
     43400   294.82344     -5063.0945     -4164.0691      347.24619     -4083.4305      25.158027      25.158027      25.158027      269.96471     -20.76161       792.53546    
     43500   295.13221     -5104.8545     -4204.8875     -660.73578     -4358.2822      25.155647      25.155647      25.155647     -1320.0319     -616.25825     -45.917186    
     43600   297.80742     -5128.8815     -4220.7569      285.00741     -4154.8814      25.118705      25.118705      25.118705      368.86706     -398.52177      884.67694    
     43700   296.80896     -5114.0491     -4208.9691      864.13106     -4009.8305      25.093814      25.093814      25.093814      1221.7032      611.77737      758.91259    
     43800   295.21442     -5066.2458     -4166.0282      561.18854     -4036.5569      25.10323       25.10323       25.10323      -45.947016      399.87178      1329.6409    
     43900   299.98575     -5016.0138     -4101.2466     -32.705819     -4108.8384      25.154444      25.154444      25.154444      266.96877     -968.97133      603.8851     
     44000   306.20424     -5015.2081     -4081.4785     -744.15471     -4255.4781      25.215624      25.215624      25.215624     -1472.4329     -226.44446     -533.58674    
     44100   296.35384     -5004.8384     -4101.1463     -679.12862     -4260.2064      25.22964       25.22964       25.22964      -1636.66       -338.40888     -62.317028    
[...]
     91200   312.89387     -4965.4589     -4011.3302      789.71389     -3825.3957      25.273849      25.273849      25.273849      703.80201      1953.1586     -287.81894    
     91300   296.16217     -4966.9413     -4063.8337     -511.70141     -4185.6716      25.368608      25.368608      25.368608     -930.55813     -105.76589     -498.7802     
     91400   309.87647     -5022.9635     -4078.0359     -1595.5729     -4460.1716      25.41802       25.41802       25.41802      -2213.0362     -742.02128     -1831.6611    
     91500   287.61932     -4976.9044     -4099.8471      188.7383      -4054.7911      25.390553      25.390553      25.390553     -3.8317752      577.20954     -7.1628705    
     91600   304.73777     -5036.5307     -4107.2729     -493.96518     -4224.6437      25.351052      25.351052      25.351052     -1424.3504     -134.45354      76.908438    
     91700   296.8562      -5046.0693     -4140.8453      115.05071     -4113.6515      25.30666       25.30666       25.30666       238.50623     -107.31085      213.95674    
     91800   282.69764     -5037.321      -4175.2717      639.8493      -4024.477       25.281966      25.281966      25.281966      345.11273      762.51994      811.91525    
     91900   296.8912      -5077.1076     -4171.7769     -441.8692      -4275.7656      25.270019      25.270019      25.270019     -932.32493     -165.96654     -227.31614    
     92000   292.43971     -5021.8814     -4130.1249      420.27737     -4031.4912      25.246697      25.246697      25.246697     -232.36474      1396.3358      96.861062    
     92100   304.35842     -5017.7264     -4089.6254      296.73271     -4020.0393      25.240255      25.240255      25.240255     -32.579025     -110.68225      1033.4594    
     92200   303.31898     -5020.6225     -4095.6912      302.70038     -4024.645       25.247433      25.247433      25.247433      1200.3558      592.632       -884.8867     
     92300   303.71095     -5066.2446     -4140.1179     -362.07877     -4225.1056      25.247925      25.247925      25.247925     -466.2086       45.648673     -665.67638    
     92400   288.09089     -5012.856      -4134.3606      75.151415     -4116.7394      25.239147      25.239147      25.239147      30.687847      462.30149     -267.53509    
     92500   304.98959     -5002.1065     -4072.0808      555.27297     -3942.2644      25.214423      25.214423      25.214423      334.19554      944.82074      386.80263    
     92600   307.35725     -5028.5262     -4091.2806      236.13247     -4036.27        25.184785      25.184785      25.184785      1482.1726      407.15862     -1180.9338    
     92700   307.28712     -5062.9597     -4125.928       398.1059      -4033.2972      25.174466      25.174466      25.174466     -637.7199       1576.294       255.74366    
     92800   293.85082     -5058.9453     -4162.8858     -278.72954     -4227.8571      25.189568      25.189568      25.189568     -63.046149     -332.12304     -441.01942    
     92900   299.71397     -5079.4878     -4165.5494     -981.5032      -4394.1376      25.1823        25.1823        25.1823       -359.54382     -261.65406     -2323.3117    
     93000   306.6011      -5068.973      -4134.0332     -437.98072     -4235.2778      25.119653      25.119653      25.119653      244.88088     -1608.3942      49.571194    
     93100   306.66462     -5075.4091     -4140.2756      784.3262      -3960.7383      25.037675      25.037675      25.037675      279.75722      1731.0148      342.20664    
     93200   301.80985     -5055.0855     -4134.756       1661.9975     -3755.4772      25.012135      25.012135      25.012135      988.30032      1786.2899      2211.4025    
     93300   301.13528     -5007.3058     -4089.0333      428.97231     -3990.4381      25.071686      25.071686      25.071686      280.29397      1413.4527     -406.82973    
     93400   313.50781     -5008.185      -4052.184      -601.95269     -4191.7327      25.143697      25.143697      25.143697     -1391.6027      140.47764     -554.73302    
     93500   306.17612     -4989.9773     -4056.3335      38.721207     -4047.311       25.186389      25.186389      25.186389     -557.13237      644.63494      28.661052    
     93600   290.03788     -5003.8442     -4119.4118     -1103.1058     -4376.9171      25.201772      25.201772      25.201772     -993.71053     -184.84177     -2130.7652    
     93700   292.21007     -5025.9702     -4134.914      -681.70928     -4293.4137      25.168142      25.168142      25.168142     -1236.7419     -115.82487     -692.56109    
     93800   313.94837     -5075.9628     -4118.6185      185.62284     -4075.7222      25.117166      25.117166      25.117166     -584.24041      1126.2126      14.896364    
     93900   302.30053     -5051.0699     -4129.2441      759.46329     -3954.2704      25.091698      25.091698      25.091698      961.7432       230.06142      1086.5853    
     94000   286.43486     -5068.3272     -4194.8817      341.15045     -4116.1381      25.107173      25.107173      25.107173     -504.36758      944.99386      582.82506    
     94100   295.3239      -5096.174      -4195.6226     -288.12972     -4262.2318      25.12022       25.12022       25.12022      -390.4649       174.7161      -648.64034    
     94200   293.46052     -5073.1652     -4178.2959     -439.37508     -4279.8144      25.11566       25.11566       25.11566      -68.22839       87.147677     -1337.0445    
     94300   290.38984     -5050.7414     -4165.2358      358.5657      -4082.5907      25.095205      25.095205      25.095205      99.66915      -296.67601      1272.704     
     94400   300.44653     -5044.9225     -4128.7503      1201.729      -3851.9587      25.089393      25.089393      25.089393      451.09521      1045.5576      2108.5341    
     94500   301.50581     -5030.2801     -4110.8777     -258.12403     -4170.6013      25.127373      25.127373      25.127373      52.234874     -480.37265     -346.23431    
     94600   309.09985     -5044.5739     -4102.0145      361.77678     -4017.7715      25.180972      25.180972      25.180972      471.65914      945.61743     -331.94623    
     94700   291.11257     -4995.4093     -4107.6997     -316.93105     -4182.1546      25.255207      25.255207      25.255207     -1384.1112      720.88028     -287.5622     
     94800   297.22615     -5009.6942     -4103.3421     -237.22407     -4159.3798      25.301639      25.301639      25.301639     -472.94843     -51.547776     -187.17601    
     94900   302.62317     -5034.2238     -4111.4142     -94.702808     -4133.8114      25.311554      25.311554      25.311554     -39.916383     -226.90774     -17.284304    
     95000   286.11852     -5029.0474     -4156.5665     -530.0138      -4281.5625      25.287795      25.287795      25.287795     -976.85006     -383.73221     -229.45912    
     95100   284.60866     -5057.4387     -4189.562      -476.84766     -4301.0524      25.215099      25.215099      25.215099     -408.03185     -930.76338     -91.747756    
     95200   295.72488     -5080.2775     -4178.5033      1033.3771     -3939.8454      25.111946      25.111946      25.111946      1289.9229      693.88488      1116.3235    
     95300   294.99606     -5073.5786     -4174.0269      2139.8591     -3682.4324      25.067748      25.067748      25.067748      2321.2318      1963.2708      2135.0747    
     95400   299.01615     -5074.6272     -4162.8167      227.63605     -4110.2085      25.117646      25.117646      25.117646     -42.461081     -428.25551      1153.6247    
     95500   295.21236     -5067.6485     -4167.4371     -669.271       -4323.5603      25.195895      25.195895      25.195895     -585.93207     -922.74246     -499.13848    
     95600   292.97537     -5037.6384     -4144.2484     -461.41333     -4252.6597      25.256282      25.256282      25.256282     -269.24798      376.60674     -1491.5987    
     95700   293.32119     -5022.8187     -4128.3742     -415.89292     -4226.2994      25.274289      25.274289      25.274289     -138.55161     -250.80777     -858.31937    
     95800   304.35362     -5034.2306     -4106.1442      717.60575     -3937.2404      25.271204      25.271204      25.271204      334.15881      1458.2813      360.3771     
     95900   297.36701     -5046.8129     -4140.0312      946.86534     -3916.7342      25.287523      25.287523      25.287523      629.84457      1057.1911      1153.5603    
     96000   289.98797     -5063.2478     -4178.9675     -327.65309     -4256.5292      25.319335      25.319335      25.319335     -575.1448       342.86688     -750.68136    
     96100   296.13514     -5082.9717     -4179.9465     -451.38438     -4286.8059      25.319986      25.319986      25.319986      226.62284     -623.81542     -956.96055    
     96200   289.60434     -5055.0494     -4171.939       490.99227     -4056.1158      25.289968      25.289968      25.289968      665.67799      909.58896     -102.29013    
     96300   298.11693     -5053.87       -4144.8016      837.78304     -3947.3601      25.281934      25.281934      25.281934      1080.974       1451.6382     -19.263121    
     96400   298.70157     -5027.5306     -4116.6794      331.49304     -4038.154       25.325219      25.325219      25.325219      319.44927      1194.5247     -519.49489    
     96500   288.68389     -4979.3794     -4099.0757      25.958693     -4092.8679      25.405461      25.405461      25.405461     -75.00846      -125.75887      278.64341    
     96600   294.04306     -4968.9711     -4072.3254     -381.7791      -4164.2754      25.465633      25.465633      25.465633     -442.9927       404.22489     -1106.5695    
     96700   312.47291     -5009.1526     -4056.3075     -342.55348     -4138.924       25.477344      25.477344      25.477344     -61.228849     -622.33107     -344.10053    
     96800   295.17642     -4974.5975     -4074.4957     -38.747326     -4083.8249      25.462952      25.462952      25.462952     -76.379349      274.49243     -314.35506    
     96900   293.53513     -4982.7471     -4087.6503     -424.3662      -4189.4344      25.430475      25.430475      25.430475     -1270.9259      271.51018     -273.68287    
     97000   308.034       -5058.7585     -4119.4493      372.31341     -4030.6634      25.381645      25.381645      25.381645     -161.14797      645.7044       632.38379    
     97100   289.30722     -5042.0596     -4159.8553     -230.38938     -4214.5375      25.34172       25.34172       25.34172       90.514768      200.54743     -982.23033    
     97200   299.99301     -5109.7118     -4194.9226     -605.55609     -4337.9263      25.299136      25.299136      25.299136     -1079.6685     -75.789994     -661.20977    
     97300   295.93071     -5092.1904     -4189.7886      723.36639     -4019.864       25.254611      25.254611      25.254611      1254.676      -741.70387      1657.127     
     97400   311.02102     -5085.7573     -4137.3395      193.62254     -4091.8431      25.256998      25.256998      25.256998     -75.529409      482.16026      174.23676    
     97500   313.92668     -5078.7926     -4121.5144      24.847205     -4115.6615      25.277781      25.277781      25.277781     -721.61486     -53.457905      849.61438    
     97600   292.55948     -5036.3286     -4144.2069     -53.663637     -4156.8997      25.312449      25.312449      25.312449     -700.31037      326.46393      212.85552    
     97700   290.36791     -5055.8076     -4170.3688     -465.02361     -4280.7107      25.339411      25.339411      25.339411     -893.87228     -946.7871       445.58856    
     97800   295.7167      -5056.6885     -4154.9393      171.71292     -4114.2436      25.329302      25.329302      25.329302      470.3199       47.967378     -3.1485317    
     97900   296.29616     -5026.087      -4122.5707      201.07232     -4074.9918      25.316025      25.316025      25.316025      514.25845      158.7368      -69.778296    
     98000   303.3613      -5027.6726     -4102.6121      24.285028     -4096.8675      25.31336       25.31336       25.31336      -1306.0106      328.12079      1050.7449    
     98100   295.39173     -5013.7943     -4113.036       471.76663     -4001.2277      25.329322      25.329322      25.329322      124.91555      1008.381       282.00333    
     98200   301.75927     -5041.0008     -4120.8255      338.21769     -4040.4127      25.356216      25.356216      25.356216      348.49024     -112.55263      778.71545    
     98300   284.91057     -5036.1231     -4167.3257     -824.81811     -4363.8693      25.375131      25.375131      25.375131     -2250.827       98.487116     -322.11443    
     98400   286.79433     -5062.1327     -4187.5911     -488.50904     -4303.4366      25.334378      25.334378      25.334378     -1322.74       -658.65122      515.86407    
     98500   300.70461     -5051.5298     -4134.5706      287.32993     -4066.9777      25.26668       25.26668       25.26668       421.71         331.76506      108.51473    
     98600   316.66573     -5089.9964     -4124.3659      609.54916     -3981.6215      25.228499      25.228499      25.228499      605.05857      857.18351      366.40539    
     98700   308.60772     -5090.6427     -4149.5839      462.25381     -4041.2025      25.238656      25.238656      25.238656      715.62669     -131.87191      803.00665    
     98800   295.88273     -5077.2303     -4174.9747      415.20334     -4076.9357      25.298073      25.298073      25.298073      951.40421      844.68758     -550.48178    
     98900   295.06487     -5071.064      -4171.3024     -1059.4364     -4423.2967      25.359845      25.359845      25.359845     -1651.3405     -424.17092     -1102.7977    
     99000   298.40403     -5067.3381     -4157.3942     -960.80138     -4385.9043      25.358994      25.358994      25.358994     -1053.221      -511.13243     -1318.0507    
     99100   292.73025     -5053.3861     -4160.7436      170.36448     -4120.4258      25.317096      25.317096      25.317096      519.3341       190.93358     -199.17425    
     99200   301.27358     -5042.245      -4123.5507     -12.11758      -4126.4048      25.27683       25.27683       25.27683      -105.36992      377.89399     -308.87681    
     99300   296.99074     -5014.794      -4109.1598     -326.61664     -4185.6789      25.232011      25.232011      25.232011      128.46492     -908.52253     -199.7923     
     99400   304.87473     -5031.374      -4101.6985      866.19936     -3899.7096      25.192886      25.192886      25.192886      1193.6485      1039.0812      365.86835    
     99500   303.25237     -5013.3559     -4088.6276      60.863335     -4074.4284      25.196718      25.196718      25.196718      1093.7623     -1056.6573      145.48504    
     99600   292.2485      -5006.6412     -4115.4678     -132.91166     -4146.4935      25.201551      25.201551      25.201551      147.30169      107.53324     -653.56992    
     99700   298.28801     -5032.9431     -4123.353      -390.74994     -4214.5315      25.198371      25.198371      25.198371     -1174.054       6.0349977     -4.2307874    
     99800   298.12069     -5071.5594     -4162.4795      436.67143     -4060.7394      25.185688      25.185688      25.185688     -25.759761      1288.6412      47.132827    
     99900   298.96817     -5077.5224     -4165.8582     -420.5503      -4263.8705      25.188107      25.188107      25.188107     -222.99567     -260.80849     -777.84674    
    100000   310.88197     -5076.4654     -4128.4716     -16.487705     -4132.3127      25.184853      25.184853      25.184853      262.97284      328.25411     -640.69007    
    100100   298.37037     -5016.8817     -4107.0405      370.06571     -4020.6218      25.204866      25.204866      25.204866     -769.39163     -53.663776      1933.2525    
    100200   293.14404     -5008.2948     -4114.3906      280.25567     -4048.6742      25.239522      25.239522      25.239522      572.36787     -213.86306      482.26222    
    100300   320.21968     -5052.1086     -4075.6408     -280.97686     -4141.8949      25.286507      25.286507      25.286507     -741.02514     -24.387879     -77.517562    
    100400   307.50486     -5021.2088     -4083.5131      147.38407     -4048.4902      25.351793      25.351793      25.351793      1589.896      -83.849895     -1063.8939    
    100500   298.51984     -5035.1517     -4124.8546     -422.41812     -4226.0356      25.419096      25.419096      25.419096     -133.14195     -491.2568      -642.85562    
    100600   307.03778     -5056.5315     -4120.2601     -768.37111     -4305.0471      25.453145      25.453145      25.453145     -1242.1361     -689.00412     -373.97312    
    100700   289.9678      -5006.9296     -4122.7109     -360.18988     -4209.2203      25.442041      25.442041      25.442041     -145.11514      637.60715     -1573.0617    
    100800   307.19353     -5023.0906     -4086.3442     -519.77757     -4210.5046      25.395878      25.395878      25.395878     -556.62312     -877.7766      -124.933      
    100900   308.28913     -5017.3045     -4077.2173      795.15633     -3888.5901      25.337202      25.337202      25.337202      1514.3851      128.81515      742.26873    
    101000   314.43123     -5028.711      -4069.8943      800.27255     -3880.7113      25.307898      25.307898      25.307898      826.85193      1080.1669      493.79881    
Loop time of 2279.71 on 1 procs for 100000 steps with 1536 atoms

Performance: 3.790 ns/day, 6.333 hours/ns, 43.865 timesteps/s
99.0% CPU use with 1 MPI tasks x 1 OpenMP threads

MPI task timing breakdown:
Section |  min time  |  avg time  |  max time  |%varavg| %total
---------------------------------------------------------------
Pair    | 1159.6     | 1159.6     | 1159.6     |   0.0 | 50.87
Bond    | 0.21617    | 0.21617    | 0.21617    |   0.0 |  0.01
Kspace  | 312.15     | 312.15     | 312.15     |   0.0 | 13.69
Neigh   | 24.749     | 24.749     | 24.749     |   0.0 |  1.09
Comm    | 7.9284     | 7.9284     | 7.9284     |   0.0 |  0.35
Output  | 0.4478     | 0.4478     | 0.4478     |   0.0 |  0.02
Modify  | 771.24     | 771.24     | 771.24     |   0.0 | 33.83
Other   |            | 3.384      |            |       |  0.15

Nlocal:           1536 ave        1536 max        1536 min
Histogram: 1 0 0 0 0 0 0 0 0 0
Nghost:           9892 ave        9892 max        9892 min
Histogram: 1 0 0 0 0 0 0 0 0 0
Neighs:         526562 ave      526562 max      526562 min
Histogram: 1 0 0 0 0 0 0 0 0 0

Total # of neighbors = 526562
Ave neighs/atom = 342.8138
Ave special neighs/atom = 2
Neighbor list builds = 1475
Dangerous builds = 0

write_data  water2.data
System init for write_data ...
PPPM initialization ...
  using 12-bit tables for long-range coulomb (src/kspace.cpp:342)
  G vector (1/distance) = 0.31132036
  grid = 24 24 24
  stencil order = 5
  estimated absolute RMS force accuracy = 0.0018987045
  estimated relative force accuracy = 5.7178922e-06
  using double precision FFTW3
  3d grid and FFT values/proc = 29791 13824
Generated 0 of 1 mixed pair_coeff terms from geometric mixing rule
WARNING: Not all mixed pair coeffs generated from mixing. Use write_data with 'pair ij' option to store all pair coeffs. (src/write_data.cpp:309)
write_restart     water2.restart
System init for write_restart ...
PPPM initialization ...
  using 12-bit tables for long-range coulomb (src/kspace.cpp:342)
  G vector (1/distance) = 0.31132036
  grid = 24 24 24
  stencil order = 5
  estimated absolute RMS force accuracy = 0.0018987045
  estimated relative force accuracy = 5.7178922e-06
  using double precision FFTW3
  3d grid and FFT values/proc = 29791 13824
Generated 0 of 1 mixed pair_coeff terms from geometric mixing rule
Total wall time: 0:37:59
