LAMMPS (4 May 2022)
OMP_NUM_THREADS environment is not set. Defaulting to 1 thread. (src/comm.cpp:98)
  using 1 OpenMP thread(s) per MPI task
# spc water - 1=O, 2=H

read_restart    water1.restart
Reading restart file ...
  restart file = 4 May 2022, LAMMPS = 4 May 2022
  restoring atom style full from restart
  orthogonal box = (-0.41196102 -0.41196102 -0.41196102) to (15.911961 15.911961 15.911961)
  1 by 1 by 1 MPI processor grid
  restoring pair style lj/cut/coul/long from restart
  restoring bond style harmonic from restart
  restoring angle style harmonic from restart
  375 atoms
  250 bonds
  125 angles
Finding 1-2 1-3 1-4 neighbors ...
  special bond factors lj:    0        0        0       
  special bond factors coul:  0        0        0       
     2 = max # of 1-2 neighbors
     1 = max # of 1-3 neighbors
     1 = max # of 1-4 neighbors
     2 = max # of special neighbors
  special bonds CPU = 0.000 seconds
  read_restart CPU = 0.004 seconds

kspace_style   pppm 1.0e-5

group oxygen type 1
125 atoms in group oxygen

#======================
neighbor        2.0 bin
neigh_modify    every 1 delay 1 check yes
#======================

#reset_timestep 0
timestep 1.0

fix            1 all shake 0.0001 20 0 b 1 a 1
       0 = # of size 2 clusters
       0 = # of size 3 clusters
       0 = # of size 4 clusters
     125 = # of frozen angles
  find clusters CPU = 0.000 seconds
fix            2 all npt temp 300.0 300.0 100.0 iso 1.0 1.0 1000.0
Resetting global fix info from restart file:
  fix style: npt, fix ID: 2
fix            3 all momentum 1 linear 1 1 1
fix	       xwall1 all wall/lj93 xlo EDGE 1.0 1.0 2.5 pbc yes
fix	       xwall2 all wall/lj93 xhi EDGE 1.0 1.0 2.5 pbc yes
fix	       ywall1 all wall/lj93 ylo EDGE 1.0 1.0 2.5 pbc yes
fix	       ywall2 all wall/lj93 yhi EDGE 1.0 1.0 2.5 pbc yes
fix	       zwall1 all wall/lj93 zlo EDGE 1.0 1.0 2.5 pbc yes
fix	       zwall2 all wall/lj93 zhi EDGE 1.0 1.0 2.5 pbc yes

compute	MSD oxygen msd com no
fix 4 oxygen ave/time 1 1 500 c_MSD[4] file spc.msd

thermo 100
thermo_style custom step temp pe etotal press enthalpy lx ly lz pxx pyy pzz
thermo_modify flush yes

dump         1 all dcd 1 water2.dcd
dump         2 all custom 1000 md2.lammpstrj id type x y z
#dump_modify  1 unwrap yes
run 100000
PPPM initialization ...
  using 12-bit tables for long-range coulomb (src/kspace.cpp:342)
  G vector (1/distance) = 0.30904453
  grid = 15 15 15
  stencil order = 5
  estimated absolute RMS force accuracy = 0.002085738
  estimated relative force accuracy = 6.2811381e-06
  using double precision FFTW3
  3d grid and FFT values/proc = 10648 3375
Generated 0 of 1 mixed pair_coeff terms from geometric mixing rule
All restart file global fix info was re-assigned
Neighbor list info ...
  update every 1 steps, delay 1 steps, check yes
  max neighbors/atom: 2000, page size: 100000
  master list distance cutoff = 12
  ghost atom cutoff = 12
  binsize = 6, bins = 3 3 3
  1 neighbor lists, perpetual/occasional/extra = 1 0 0
  (1) pair lj/cut/coul/long, perpetual
      attributes: half, newton on
      pair build: half/bin/newton
      stencil: half/bin/3d
      bin: standard
Per MPI rank memory allocation (min/avg/max) = 10.98 | 10.98 | 10.98 Mbytes
   Step          Temp          PotEng         TotEng         Press         Enthalpy          Lx             Ly             Lz            Pxx            Pyy            Pzz      
      1000   309.5077      -1143.0357     -913.31233     -10646.461     -1588.7024      16.323922      16.323922      16.323922     -12027.524     -10657.847     -9254.0108    
      1100   324.95997     -1131.8071     -890.61475     -2784.3373     -1060.6023      16.11659       16.11659       16.11659      -3999.8209     -1334.8757     -3018.3152    
      1200   287.23508     -1128.8829     -915.69078      1450.3549     -830.18182      15.930173      15.930173      15.930173      2986.0439      936.56647      428.45423    
      1300   306.89025     -1175.1837     -947.40306      116.91635     -940.63704      15.831692      15.831692      15.831692     -640.82933      674.84173      316.73667    
      1400   290.12009     -1198.6518     -983.3184      -403.63257     -1006.4706      15.78496       15.78496       15.78496      -1838.0952      1283.5226     -656.32505    
      1500   280.05157     -1208.1293     -1000.2689      180.74769     -989.94096      15.764801      15.764801      15.764801      847.06344      377.05317     -681.87353    
      1600   287.84478     -1210.7409     -997.09627     -885.63753     -1047.5274      15.746676      15.746676      15.746676     -1881.0979     -1041.0795      265.26481    
      1700   286.08203     -1197.7556     -985.4193      -411.90004     -1008.6825      15.703648      15.703648      15.703648      1188.1366     -1785.4565     -638.38022    
      1800   295.81476     -1182.9905     -963.43033      858.82353     -915.4162       15.650555      15.650555      15.650555      2910.0569     -788.55114      454.96477    
      1900   324.55366     -1191.1037     -950.21297     -340.22443     -969.08889      15.610696      15.610696      15.610696     -377.30742     -620.48314     -22.882729    
      2000   339.33505     -1208.7606     -956.89875      1476.5439     -874.98906      15.610052      15.610052      15.610052      3118.1204      2293.4651     -981.95401    
      2100   294.54423     -1210.1036     -991.48647      320.37417     -973.51685      15.667575      15.667575      15.667575      1168.9753      348.31083     -556.1636     
      2200   308.00789     -1241.366      -1012.7558     -379.23423     -1034.273       15.727773      15.727773      15.727773      725.83128      508.92716     -2372.4611    
      2300   293.67276     -1247.7855     -1029.8152      897.28489     -978.55062      15.764144      15.764144      15.764144      1707.4619      1776.1455     -791.75281    
      2400   269.87576     -1234.2547     -1033.9471     -522.29313     -1063.9966      15.800928      15.800928      15.800928      50.511067      680.22802     -2297.6185    
      2500   293.89145     -1216.339      -998.20635      584.16057     -964.50687      15.81509       15.81509       15.81509       2118.3575      419.8531      -785.72889    
      2600   310.57101     -1200.596      -970.08348      1290.9441     -895.39182      15.830559      15.830559      15.830559      783.17288      2358.2704      731.38892    
      2700   314.75275     -1207.8104     -974.19404     -1082.5195     -1037.1349      15.856486      15.856486      15.856486      1633.1644     -2923.1668     -1957.5562    
      2800   317.95012     -1225.5607     -989.57117     -1782.5436     -1093.4946      15.870811      15.870811      15.870811     -2854.3276     -1509.2609     -984.04231    
      2900   291.07532     -1217.9956     -1001.9532     -1119.1787     -1066.9895      15.853561      15.853561      15.853561     -488.18949     -1428.1968     -1441.1498    
      3000   277.86686     -1217.8661     -1011.6273      874.38489     -961.1413       15.819676      15.819676      15.819676      2423.6685      532.69043     -333.20422    
      3100   293.93322     -1220.1804     -1002.0168     -384.63242     -1024.1639      15.805143      15.805143      15.805143      313.60031     -46.032614     -1421.4649    
      3200   315.48481     -1225.8571     -991.69746     -0.075665125   -991.70181      15.796973      15.796973      15.796973     -522.31971     -139.16502      661.25773    
      3300   306.62121     -1202.9501     -975.36923     -1720.2236     -1074.0904      15.787614      15.787614      15.787614     -745.6904      -2789.1321     -1625.8483    
      3400   313.79724     -1210.7639     -977.85676      389.55345     -955.66847      15.748057      15.748057      15.748057      1394.9298      424.01532     -650.28476    
      3500   295.67905     -1206.0127     -986.55328      255.73152     -972.08897      15.711315      15.711315      15.711315     -332.92629      1433.4952     -333.37437    
      3600   307.94722     -1222.4538     -993.88869      987.85723     -938.26251      15.688077      15.688077      15.688077      2457.351       1380.4473     -874.22662    
      3700   292.45151     -1223.8463     -1006.7824      822.25439     -960.50477      15.685429      15.685429      15.685429      918.60624      189.54061      1358.6163    
      3800   316.50853     -1246.0765     -1011.157      -1411.0238     -1090.6283      15.689177      15.689177      15.689177     -1372.9793     -1842.5734     -1017.5186    
      3900   290.24667     -1236.0932     -1020.6658     -389.93923     -1042.5317      15.666255      15.666255      15.666255      753.05458     -491.73148     -1431.1408    
      4000   286.57662     -1240.2184     -1027.515       1341.2028     -952.49957      15.652853      15.652853      15.652853      118.70366      3174.1956      730.70911    
      4100   275.38872     -1227.5666     -1023.1672      430.32339     -998.9378       15.687617      15.687617      15.687617      2471.0466     -1416.4361      236.35965    
      4200   296.2834      -1212.4896     -992.58168     -114.05012     -999.07875      15.748843      15.748843      15.748843     -1145.6137      841.05348     -37.590165    
      4300   314.03219     -1217.6234     -984.54194     -2163.2253     -1109.0212      15.801795      15.801795      15.801795     -1542.9079     -2197.2135     -2749.5545    
      4400   307.45364     -1215.5833     -987.38457     -107.11191     -993.53595      15.791361      15.791361      15.791361      1523.077      -989.59227     -854.82047    
      4500   285.92917     -1223.4188     -1011.196       1585.9504     -920.22253      15.785186      15.785186      15.785186      1999.786       778.19167      1979.8735    
      4600   266.71183     -1225.7088     -1027.7495     -1131.4101     -1092.9206      15.807134      15.807134      15.807134     -1440.232       208.11321     -2162.1117    
      4700   277.92091     -1241.9159     -1035.637      -484.95203     -1063.5365      15.800616      15.800616      15.800616      122.604       -1032.3153     -545.14474    
      4800   305.26613     -1226.3535     -999.77838      711.02487     -958.9866       15.785948      15.785948      15.785948      2516.4114     -933.1578       549.82105    
      4900   310.43666     -1218.0417     -987.62892      927.70128     -934.31153      15.795315      15.795315      15.795315      1867.6062      2380.2533     -1464.7556    
      5000   304.78453     -1214.7591     -988.54144      360.82882     -967.65433      15.833143      15.833143      15.833143     -161.75443      462.48754      781.75336    
      5100   306.31975     -1224.8941     -997.53697      381.61943     -975.28964      15.870497      15.870497      15.870497      374.44787      33.541009      736.8694     
      5200   273.06168     -1205.0502     -1002.3779     -1921.8919     -1114.7511      15.886175      15.886175      15.886175     -2489.4795      45.937543     -3322.1337    
      5300   328.63159     -1238.4202     -994.5027       76.946419     -990.04575      15.836455      15.836455      15.836455     -818.77006      1133.0229     -83.413613    
      5400   323.28208     -1212.274      -972.32707      1771.6523     -870.51109      15.795033      15.795033      15.795033      2635.8331      2348.9839      330.13997    
      5500   300.65965     -1206.5202     -983.36409      679.48268     -944.04604      15.831153      15.831153      15.831153     -809.34396      1378.4328      1469.3592    
      5600   312.6697      -1234.3178     -1002.2476      520.65953     -971.69051      15.905993      15.905993      15.905993     -91.153945      713.57946      939.55307    
      5700   305.07956     -1224.7048     -998.26816     -27.19954      -999.89246      15.998412      15.998412      15.998412      620.28058      425.02296     -1126.9022    
      5800   281.73526     -1205.3692     -996.25919     -1700.5996     -1099.2339      16.07253       16.07253       16.07253      -2183.9843     -2229.8823     -687.9321     
      5900   310.00416     -1205.1226     -975.03082     -1295.8383     -1053.2955      16.058798      16.058798      16.058798     -1190.4375     -80.324187     -2616.7532    
      6000   309.18008     -1205.2953     -975.81508      659.77938     -936.57011      15.977291      15.977291      15.977291      796.61158      1287.6114     -104.88485    
      6100   322.42477     -1213.5688     -974.25817     -427.8891      -999.3422       15.899986      15.899986      15.899986     -302.68686     -577.8032      -403.17724    
      6200   279.78111     -1203.0661     -995.40654      380.65717     -973.39825      15.826765      15.826765      15.826765      654.61705     -169.67584      657.0303     
      6300   302.72787     -1222.8409     -998.14967      1440.9639     -915.637        15.776011      15.776011      15.776011     -54.978495      4521.5367     -143.6665     
      6400   277.83738     -1214.6729     -1008.456       1526.9635     -920.92034      15.781932      15.781932      15.781932      1441.7451      773.59168      2365.5538    
      6500   286.64364     -1233.5278     -1020.7747     -2027.0218     -1137.8425      15.821014      15.821014      15.821014     -2636.9625     -1361.1997     -2082.9034    
      6600   278.39944     -1219.2016     -1012.5675     -961.06426     -1067.7692      15.792159      15.792159      15.792159      106.59752     -2664.0441     -325.7462     
      6700   328.3734      -1227.8303     -984.10448      1300.9496     -909.99418      15.748798      15.748798      15.748798      501.08995      2402.9138      998.84514    
      6800   314.77115     -1232.6013     -998.97128      801.32239     -953.3256       15.748487      15.748487      15.748487      1816.9424      793.49264     -206.46788    
      6900   295.34918     -1222.6565     -1003.4419     -102.26798     -1009.3059      15.783068      15.783068      15.783068     -516.29664     -1065.906       1275.3987    
      7000   263.59878     -1202.7441     -1007.0954     -1721.3845     -1106.6499      15.828351      15.828351      15.828351     -96.404311     -3182.9839     -1884.7654    
      7100   304.28695     -1206.3394     -980.49106     -1829.5867     -1086.0225      15.814335      15.814335      15.814335     -1921.4256     -923.60526     -2643.7292    
      7200   292.25833     -1195.6955     -978.77498      1406.2214     -898.49732      15.759958      15.759958      15.759958      1716.1967      781.15676      1721.3107    
      7300   320.94372     -1222.9504     -984.73898     -244.97605     -998.68125      15.743864      15.743864      15.743864      556.11382     -1905.1809      614.13897    
      7400   295.31908     -1224.7203     -1005.528       593.69548     -971.75381      15.741591      15.741591      15.741591      1193.3935      1466.51       -878.81708    
      7500   278.87294     -1223.0647     -1016.0792     -533.94576     -1046.63        15.771874      15.771874      15.771874     -1075.6712      608.40014     -1134.5662    
      7600   294.47593     -1222.2258     -1003.6594      261.27711     -988.62591      15.801353      15.801353      15.801353     -1917.9305      1427.6535      1274.1083    
      7700   305.75345     -1210.3598     -983.42291     -642.04176     -1020.6457      15.84127       15.84127       15.84127      -386.71062     -1550.4461      11.03145     
      7800   329.97346     -1198.2698     -953.35638      92.372447     -947.95554      15.885985      15.885985      15.885985      608.30199      454.69264     -785.87729    
      7900   292.71708     -1187.1288     -969.86787      431.52685     -944.39095      15.937533      15.937533      15.937533      1947.398       253.87128     -906.68874    
      8000   328.35924     -1216.9632     -973.24788     -1720.8691     -1075.4459      15.968822      15.968822      15.968822     -1444.1732     -1772.3179     -1946.1164    
      8100   302.39389     -1216.6914     -992.24807     -129.43868     -999.92785      15.9638        15.9638        15.9638        250.92758      48.302057     -687.54569    
      8200   279.62756     -1214.8759     -1007.3302     -781.72163     -1053.5585      15.946293      15.946293      15.946293      770.30321     -1541.9402     -1573.5279    
      8300   287.52345     -1223.1062     -1009.7001     -1137.5693     -1076.3181      15.894466      15.894466      15.894466     -947.99984     -31.713927     -2432.9941    
      8400   287.98658     -1223.7128     -1009.9629      1382.9073     -929.99479      15.827633      15.827633      15.827633      730.33319      2126.2175      1292.1714    
      8500   335.46464     -1244.8074     -995.81829     -369.09948     -1017.0516      15.800333      15.800333      15.800333      177.39639      1203.8606     -2488.5554    
      8600   328.4209      -1217.397      -973.63586      194.0515      -962.50042      15.787188      15.787188      15.787188     -310.02551      753.46225      138.71777    
      8700   312.50543     -1223.3028     -991.35446      641.57158     -954.58352      15.78076       15.78076       15.78076       2036.0687     -83.8389       -27.515023    
      8800   292.59412     -1223.9638     -1006.7941     -995.29074     -1063.8502      15.781879      15.781879      15.781879     -1559.9519      940.20749     -2366.1278    
      8900   303.27029     -1240.4701     -1015.3763     -1260.0376     -1087.1756      15.750225      15.750225      15.750225     -637.7528      -735.84457     -2406.5154    
      9000   271.23084     -1225.8664     -1024.553       1676.5012     -930.2215       15.684078      15.684078      15.684078     -1075.2789      3278.3873      2826.3952    
      9100   314.59694     -1246.4704     -1012.9698      2154.8999     -892.48607      15.650988      15.650988      15.650988      1198.5637      2627.2753      2638.8607    
      9200   304.38778     -1225.4838     -999.56059      162.88048     -990.40076      15.681253      15.681253      15.681253      858.65585     -898.91076      528.89634    
      9300   318.16764     -1227.0888     -990.93791      788.77743     -946.12196      15.735024      15.735024      15.735024      1983.3255      1425.5423     -1042.5356    
      9400   291.68469     -1234.3794     -1017.8847     -84.88032      -1022.7998      15.834887      15.834887      15.834887      780.34101      465.66439     -1500.6464    
      9500   310.31219     -1251.2507     -1020.9303     -1349.6523     -1100.5695      15.934671      15.934671      15.934671     -1210.9625     -1264.2654     -1573.7289    
      9600   283.59994     -1241.9851     -1031.4911     -136.67092     -1039.6168      15.974863      15.974863      15.974863     -972.73025      846.89759     -284.18009    
      9700   289.90513     -1225.8777     -1010.7039     -53.107168     -1013.8688      15.987414      15.987414      15.987414     -418.67017     -910.30061      1169.6493    
      9800   314.93306     -1227.5193     -993.76919     -745.28332     -1038.0955      15.976732      15.976732      15.976732     -2191.6202      444.09613     -488.32591    
      9900   299.34278     -1227.3112     -1005.1325      122.63937     -997.87445      15.950405      15.950405      15.950405      731.38698      440.10955     -803.57842    
     10000   291.49584     -1235.6062     -1019.2517     -295.86774     -1036.5877      15.897379      15.897379      15.897379     -1732.1217      705.81502      138.70342    
     10100   295.83438     -1237.2274     -1017.6527     -1814.7641     -1122.6546      15.830709      15.830709      15.830709     -2631.0346     -497.87708     -2315.3808    
     10200   321.83269     -1241.9253     -1003.0541      1343.6251     -926.63012      15.740744      15.740744      15.740744      714.4024       3627.736      -311.26298    
     10300   287.89545     -1248.1819     -1034.4997      682.12707     -996.12645      15.682995      15.682995      15.682995      716.60835      968.04993      361.72294    
     10400   295.67531     -1277.4689     -1058.0123      2110.0102     -940.13473      15.646728      15.646728      15.646728      2591.3682      2331.0547      1407.6077    
     10500   277.01746     -1252.96       -1047.3516      2779.6088     -891.25712      15.673862      15.673862      15.673862      3179.7097      4487.4133      671.7034     
     10600   307.55014     -1253.0237     -1024.7533      1224.1775     -954.62861      15.777939      15.777939      15.777939      3094.7253      673.55812     -95.751044    
     10700   310.64093     -1230.574      -1000.0095      623.65263     -963.47145      15.896773      15.896773      15.896773     -112.88646      2679.9473     -696.103      
     10800   311.29601     -1221.3683     -990.31767     -1208.5539     -1062.4226      15.993412      15.993412      15.993412     -1161.152      -295.14216     -2169.3675    
     10900   283.54543     -1233.9255     -1023.4719     -1330.9423     -1103.5937      16.041261      16.041261      16.041261     -511.95397     -349.69192     -3131.1811    
     11000   283.2952      -1244.7383     -1034.4704     -1212.0513     -1107.3299      16.033554      16.033554      16.033554     -1479.0481     -1802.1561     -354.9498     
     11100   286.09956     -1233.4511     -1021.1018     -1199.3467     -1092.4205      15.975738      15.975738      15.975738     -873.95216     -1171.9135     -1552.1745    
     11200   289.53381     -1222.7268     -1007.8285     -604.9624      -1043.2377      15.891704      15.891704      15.891704      65.446913      147.87032     -2028.2044    
     11300   314.11698     -1237.4501     -1004.3056     -214.05627     -1016.6282      15.803973      15.803973      15.803973      919.02354      614.65234     -2175.8447    
     11400   298.34252     -1221.4972     -1000.0609      619.67103     -964.81709      15.740376      15.740376      15.740376      365.65316      276.16474      1217.1952    
     11500   337.09926     -1225.4968     -975.29439      2903.8153     -810.63587      15.724606      15.724606      15.724606      2213.1149      3821.653       2676.6779    
     11600   312.56359     -1222.9494     -990.95794     -418.21675     -1014.9497      15.785612      15.785612      15.785612     -1173.061       93.308842     -174.89809    
     11700   298.90999     -1243.5584     -1021.7009     -846.33668     -1070.8372      15.848722      15.848722      15.848722     -2710.9294      388.38173     -216.46234    
     11800   312.95935     -1253.3166     -1021.0313     -278.57912     -1037.3882      15.908339      15.908339      15.908339     -512.89622     -1057.593       734.75184    
     11900   289.46628     -1244.03       -1029.1818     -573.14849     -1063.1355      15.955648      15.955648      15.955648      84.520253      802.09424     -2606.06      
     12000   291.04476     -1236.9499     -1020.9301     -902.97242     -1074.5793      15.971197      15.971197      15.971197     -1857.1479     -729.81223     -121.95712    
     12100   302.05006     -1219.8614     -995.67329     -1090.0078     -1060.1907      15.951091      15.951091      15.951091     -266.21708     -1782.8775     -1220.9287    
     12200   303.71897     -1227.5789     -1002.152      -558.8361      -1034.745       15.872827      15.872827      15.872827     -1252.0124     -315.96147     -108.53445    
     12300   293.75846     -1241.1748     -1023.1409      674.16158     -984.5372       15.775986      15.775986      15.775986      190.35305      1479.3217      352.81003    
     12400   290.04665     -1242.0294     -1026.7505      1945.8855     -916.85947      15.703256      15.703256      15.703256      2347.4109      3338.943       151.30275    
     12500   291.8509      -1240.5072     -1023.8891      1145.8061     -959.42792      15.683288      15.683288      15.683288      1961.843      -129.9013       1605.4767    
     12600   296.19298     -1230.8847     -1011.0439      2223.9767     -885.51768      15.700352      15.700352      15.700352      567.31194      4711.1915      1393.4267    
     12700   329.9437      -1244.3757     -999.48428     -190.61157     -1010.3632      15.758704      15.758704      15.758704     -1935.0722     -1110.9381      2474.1755    
     12800   308.74522     -1250.6417     -1021.4843     -551.78244     -1053.2402      15.802525      15.802525      15.802525      903.20372     -313.15841     -2245.3926    
     12900   303.50428     -1249.3475     -1024.08       -532.39717     -1054.8484      15.82453       15.82453       15.82453       625.26626     -581.93619     -1640.5216    
     13000   316.31809     -1256.0462     -1021.268      -271.31372     -1036.9297      15.81844       15.81844       15.81844      -1794.8389     -1078.8231      2059.7208    
     13100   296.72072     -1239.8928     -1019.6602      411.89588     -995.99078      15.794581      15.794581      15.794581      871.53826      1151.8502     -787.70081    
     13200   335.50392     -1232.6804     -983.66208      519.99252     -953.83798      15.784523      15.784523      15.784523     -845.94561      37.449385      2368.4738    
     13300   325.67728     -1221.7843     -980.05959      858.51596     -930.4604       15.822804      15.822804      15.822804      1312.9833      1032.3326      230.23199    
     13400   313.86048     -1239.1354     -1006.1814     -892.3415      -1058.3277      15.883236      15.883236      15.883236     -274.77464     -1939.4873     -462.76255    
     13500   295.099       -1223.748      -1004.7191     -1273.4644     -1079.5486      15.91244       15.91244       15.91244      -624.45152     -860.03755     -2335.9043    
     13600   302.2107      -1239.575      -1015.2676     -1747.1079     -1117.2648      15.878061      15.878061      15.878061     -2068.6005     -1210.714      -1962.0093    
     13700   303.79013     -1243.9071     -1018.4274      246.92273     -1004.2384      15.794497      15.794497      15.794497     -733.93664     -102.45115      1577.156     
     13800   304.55574     -1251.979      -1025.9311      1103.2776     -963.30244      15.730315      15.730315      15.730315      274.84993      1734.1286      1300.8541    
     13900   287.43932     -1228.2304     -1014.8867      1053.686      -955.31929      15.708714      15.708714      15.708714      1712.998       1807.1923     -359.13234    
     14000   323.35462     -1240.8193     -1000.8185      99.120223     -995.19008      15.731922      15.731922      15.731922     -489.98067      1770.0214     -982.68002    
     14100   316.87303     -1227.3553     -992.16523     -1090.2089     -1054.3465      15.755224      15.755224      15.755224     -82.980122     -1946.0143     -1241.6324    
     14200   307.92936     -1214.3741     -985.82225      765.92298     -942.34283      15.730442      15.730442      15.730442      1170.8077      1307.9879     -181.02665    
     14300   303.8743      -1211.1217     -985.57957      3401.3847     -793.21508      15.71078       15.71078       15.71078       2539.4366      4522.5807      3142.1369    
     14400   341.89073     -1229.5228     -975.76407      1173.0186     -908.84366      15.756483      15.756483      15.756483      1221.2965     -729.68016      3027.4394    
     14500   287.62385     -1220.8593     -1007.3786     -971.21543     -1063.4913      15.823038      15.823038      15.823038     -3280.8923     -473.49231      840.73828    
     14600   295.04003     -1239.8222     -1020.8371      433.84635     -995.59859      15.8593        15.8593        15.8593        635.06464      1194.0339     -527.55949    
     14700   298.75489     -1243.4775     -1021.7352     -1313.6296     -1098.6135      15.891016      15.891016      15.891016     -555.71777     -1905.3835     -1479.7875    
     14800   303.49178     -1230.8185     -1005.5604     -605.00497     -1040.9773      15.892502      15.892502      15.892502     -1707.0744      670.66251     -778.60296    
     14900   299.97894     -1214.2672     -991.61633      1809.7781     -886.06195      15.872975      15.872975      15.872975      1061.5467      2975.8512      1391.9365    
     15000   293.07826     -1206.6019     -989.07288      36.581926     -986.94034      15.870285      15.870285      15.870285      492.21671     -1188.9155      806.44458    
     15100   318.4465      -1226.0508     -989.69285      2152.9005     -864.16887      15.87117       15.87117       15.87117       2217.9765      2775.9574      1464.7676    
     15200   309.06196     -1225.6923     -996.29984      456.21021     -969.44752      15.921366      15.921366      15.921366     -737.84046      870.33075      1236.1403    
     15300   297.67988     -1215.2554     -994.31091     -1052.8061     -1056.9485      15.978535      15.978535      15.978535     -1345.1263     -841.72215     -971.56979    
     15400   298.38224     -1225.4695     -1004.0037     -486.52083     -1033.0229      15.992007      15.992007      15.992007     -675.99615     -30.271136     -753.29522    
     15500   297.71079     -1238.0631     -1017.0957     -1376.0466     -1098.8062      15.968216      15.968216      15.968216     -2811.9234     -548.83793     -767.37832    
     15600   289.76507     -1260.5342     -1045.4643      161.64206     -1035.9717      15.909322      15.909322      15.909322      1167.3426      162.24599     -844.66238    
     15700   286.51263     -1256.049      -1043.3931      651.23794     -1005.5336      15.855738      15.855738      15.855738      116.21069      1510.0844      327.41874    
     15800   301.60887     -1244.1579     -1020.2972      1216.792      -949.75787      15.840898      15.840898      15.840898      1149.1353      396.68775      2104.5528    
     15900   314.3815      -1234.6958     -1001.355      -504.05827     -1030.7342      15.869423      15.869423      15.869423      365.28023     -384.34895     -1493.1061    
     16000   304.52134     -1219.9621     -993.93977      1241.8236     -920.8567       15.920633      15.920633      15.920633      2273.558       770.43802      681.47491    
     16100   289.84259     -1213.91       -998.78255     -1628.5374     -1095.8024      15.9856        15.9856        15.9856       -2154.012      -8.1323741     -2723.4679    
     16200   268.15107     -1214.2936     -1015.266      -936.48965     -1071.0553      15.985419      15.985419      15.985419     -641.23497     -1129.9393     -1038.2947    
     16300   287.24299     -1226.9702     -1013.7722      3.0009537     -1013.5952      15.933381      15.933381      15.933381     -1090.3459      230.31054      869.03818    
     16400   328.79344     -1238.5343     -994.49671      1420.949      -911.54723      15.877657      15.877657      15.877657      3629.9692      601.35364      31.524189    
     16500   302.72667     -1208.5472     -983.85687      1654.5468     -887.08325      15.887931      15.887931      15.887931     -409.70406      2235.352       3137.9923    
     16600   308.33263     -1209.311      -980.45982      502.35443     -950.75596      15.945651      15.945651      15.945651     -476.41336      2507.7141     -524.23741    
     16700   294.56124     -1204.7534     -986.12364      528.57044     -954.39773      16.025507      16.025507      16.025507      2143.5648      493.81719     -1051.6707    
     16800   284.31456     -1200.3695     -989.34511     -1490.3155     -1080.3241      16.11619       16.11619       16.11619       683.8232      -2948.3063     -2206.4632    
     16900   296.05187     -1193.0802     -973.34407     -1396.7221     -1059.0383      16.143158      16.143158      16.143158     -1161.399      -1198.222      -1830.5452    
     17000   306.78445     -1178.26       -950.55796      170.15324     -940.17463      16.114133      16.114133      16.114133     -2199.0203      1222.3093      1487.1707    
     17100   319.05914     -1197.5716     -960.75898     -1893.7845     -1075.1073      16.05737       16.05737       16.05737      -2616.6146     -1832.095      -1232.6438    
     17200   302.71532     -1212.3271     -987.64523      103.07002     -981.52944      15.964235      15.964235      15.964235     -233.88666      407.2119       135.88482    
     17300   291.78802     -1211.517      -994.94555      896.59247     -942.60992      15.877257      15.877257      15.877257      2060.9601     -976.65995      1605.4773    
     17400   288.64956     -1214.0846     -999.84266      260.32045     -984.81354      15.819148      15.819148      15.819148      40.753331      805.03947     -64.831461    
     17500   301.11127     -1225.0586     -1001.5673      1071.3275     -939.8009       15.811925      15.811925      15.811925      2184.2735      775.06571      254.64327    
     17600   315.42379     -1218.7541     -984.63971     -220.16682     -997.42005      15.847895      15.847895      15.847895      844.2696      -351.40539     -1153.3647    
     17700   326.92895     -1213.0773     -970.4235      -678.12007     -1009.9325      15.867354      15.867354      15.867354     -520.40433     -233.38582     -1280.5701    
     17800   315.3024      -1228.2418     -994.21753     -678.3717      -1033.7369      15.866782      15.866782      15.866782     -309.13794     -1025.841      -700.13622    
     17900   261.86191     -1201.3623     -1007.0028     -78.092305     -1011.5465      15.860286      15.860286      15.860286     -117.27104     -438.95678      321.9509     
     18000   301.49276     -1212.5369     -988.76245     -275.0566      -1004.682       15.832318      15.832318      15.832318      647.39894     -1168.7254     -303.84339    
     18100   304.55469     -1210.6181     -984.57097      1742.1413     -883.96407      15.820595      15.820595      15.820595      1578.2692      2889.0017      759.15315    
     18200   285.30453     -1209.7556     -997.99634     -251.70054     -1012.6698      15.870496      15.870496      15.870496      840.48836      931.85682     -2527.4468    
     18300   291.54059     -1227.089      -1010.7013     -1518.256      -1099.7288      15.901367      15.901367      15.901367     -1827.1758     -782.32576     -1945.2664    
     18400   280.45152     -1238.2166     -1030.0593     -1620.234      -1124.6083      15.875752      15.875752      15.875752     -1725.567      -511.34401     -2623.791     
     18500   298.87066     -1249.7852     -1027.9569      867.86918     -977.82015      15.82251       15.82251       15.82251       526.50651      2566.5686     -489.46758    
     18600   317.89639     -1243.5448     -1007.5952      29.657422     -1005.887       15.806746      15.806746      15.806746     -33.161468      1650.7119     -1528.5782    
     18700   319.79774     -1229.6398     -992.27895     -549.1514      -1023.9631      15.815813      15.815813      15.815813     -1709.5275      830.21299     -768.13972    
     18800   307.08686     -1183.951      -956.02443      661.9401      -917.76926      15.824568      15.824568      15.824568      1608.905       2398.2952     -2021.3799    
     18900   306.34747     -1195.4094     -968.03164      1041.546      -907.52233      15.852191      15.852191      15.852191      1766.4747      463.64412      894.51901    
     19000   323.96458     -1216.2849     -975.83131     -790.65081     -1022.1178      15.892708      15.892708      15.892708      2456.0538     -2072.2688     -2755.7375    
     19100   304.28298     -1218.4656     -992.6202      -539.0503      -1024.299       15.913083      15.913083      15.913083      796.19792     -1549.3577     -863.99113    
     19200   294.43766     -1220.9003     -1002.3623     -510.34731     -1032.4347      15.927297      15.927297      15.927297      82.41244       45.140491     -1658.5948    
     19300   281.20389     -1229.7164     -1021.0007      2833.7319     -854.25416      15.919916      15.919916      15.919916      4842.524       1536.4427      2122.2291    
     19400   295.98223     -1250.0905     -1030.4061      113.50953     -1023.6914      15.948005      15.948005      15.948005      687.02427      1148.6569     -1495.1526    
     19500   243.78029     -1230.5742     -1049.6352     -661.97626     -1089.0832      15.987069      15.987069      15.987069     -1678.0327      1497.8273     -1805.7234    
     19600   278.37054     -1233.9248     -1027.3121     -2093.1893     -1151.8066      15.976754      15.976754      15.976754     -386.74876     -1406.196      -4486.623     
     19700   288.52837     -1240.9366     -1026.7845     -117.70575     -1033.6744      15.89199       15.89199       15.89199       769.78023     -12.929399     -1109.9681    
     19800   295.47117     -1233.6907     -1014.3856     -444.53042     -1039.874       15.782948      15.782948      15.782948      1663.4146      1285.6806     -4282.6865    
     19900   313.67106     -1236.7217     -1003.9083      1588.7021     -914.77187      15.669156      15.669156      15.669156      2460.1004      1906.6382      399.36757    
     20000   309.89479     -1242.5743     -1012.5636      1819.2032     -911.63582      15.610539      15.610539      15.610539      1309.0846      1821.4966      2327.0284    
     20100   283.85646     -1245.8198     -1035.1354      992.61657     -979.97096      15.6195        15.6195        15.6195        335.19575      512.31299      2130.341     
     20200   289.87476     -1251.4297     -1036.2784      1352.0738     -960.48838      15.66433       15.66433       15.66433       2662.3988      2461.5247     -1067.7021    
     20300   277.06679     -1225.7953     -1020.1503      1409.612      -939.97133      15.740854      15.740854      15.740854      3539.9376      1462.9055     -774.00712    
     20400   308.72089     -1237.0058     -1007.8665     -372.34452     -1029.4407      15.838153      15.838153      15.838153      238.32164      797.76412     -2153.1193    
     20500   302.32592     -1212.5705     -988.17769     -148.00759     -996.89337      15.923816      15.923816      15.923816     -1064.1629      1082.2654     -462.12528    
     20600   281.38294     -1207.4016     -998.55305     -474.63487     -1026.8343      15.986528      15.986528      15.986528      121.98252      518.48948     -2064.3766    
     20700   295.71556     -1226.8188     -1007.3323     -372.15931     -1029.6245      16.014593      16.014593      16.014593      349.87279      1413.2268     -2879.5775    
     20800   302.86052     -1219.903      -995.11332     -1560.0616     -1088.3218      16.000956      16.000956      16.000956     -1115.9        -2279.2134     -1285.0714    
     20900   317.28378     -1221.1163     -985.6214      -481.7367      -1014.1194      15.948126      15.948126      15.948126     -1614.6418     -1358.3383      1527.77      
     21000   305.3423      -1213.1698     -986.53809      1595.5625     -892.57022      15.924405      15.924405      15.924405      259.14678      2023.3811      2504.1597    
     21100   288.93121     -1212.5827     -998.13173     -1545.8086     -1089.4554      15.941059      15.941059      15.941059     -1358.9695     -924.40702     -2354.0494    
     21200   260.6431      -1217.8309     -1024.3759     -1730.1841     -1125.9729      15.908807      15.908807      15.908807     -2686.5074     -118.12984     -2385.9151    
     21300   301.33409     -1231.1818     -1007.5251     -44.683394     -1010.1102      15.830209      15.830209      15.830209      887.19606     -696.17542     -325.07082    
     21400   338.07106     -1225.0753     -974.15165      529.97784     -943.8752       15.763662      15.763662      15.763662      883.90352      211.05908      494.97092    
     21500   334.2119      -1231.629      -983.5697       246.04945     -969.58109      15.738336      15.738336      15.738336     -667.65486      682.14061      723.66259    
     21600   338.47061     -1260.0964     -1008.8762     -1490.8466     -1093.8575      15.75209       15.75209       15.75209      -837.97837     -1077.5285     -2557.0329    
     21700   274.03313     -1227.0666     -1023.6732     -1434.1118     -1105.6228      15.76507       15.76507       15.76507       976.61935     -1915.1506     -3363.804     
     21800   315.44775     -1247.8463     -1013.7141     -1087.9164     -1075.6991      15.74968       15.74968       15.74968       765.50426     -1268.2271     -2761.0263    
     21900   301.00031     -1228.1433     -1004.7343      1129.9547     -940.71741      15.720001      15.720001      15.720001      2463.3206     -467.40283      1393.9464    
     22000   295.66171     -1220.8281     -1001.3815      1056.359      -941.41568      15.730367      15.730367      15.730367     -543.83113      2156.0756      1556.8326    
     22100   295.12752     -1217.348      -998.29796     -506.50478     -1027.1677      15.751705      15.751705      15.751705      516.55611     -632.66753     -1403.4029    
     22200   292.08483     -1207.7933     -991.00163     -994.02421     -1047.7355      15.758801      15.758801      15.758801      246.66407     -944.6107      -2284.126     
     22300   286.17602     -1204.0518     -991.64572      500.87665     -963.19532      15.733568      15.733568      15.733568      648.12358     -320.03086      1174.5372    
     22400   316.92055     -1216.3324     -981.10705      3039.1401     -809.35916      15.70682       15.70682       15.70682       4966.3638      3869.9888      281.06773    
     22500   328.83381     -1231.9815     -987.91392     -446.31778     -1013.3561      15.752325      15.752325      15.752325     -303.84035      854.85389     -1889.9669    
     22600   280.12219     -1213.3987     -1005.486       930.26785     -951.79947      15.817105      15.817105      15.817105      3148.5766      1059.9542     -1417.7272    
     22700   294.35009     -1221.8919     -1003.4189     -1316.4317     -1080.6724      15.905522      15.905522      15.905522      817.20618     -1699.7352     -3066.766     
     22800   288.18491     -1209.1367     -995.23965     -1789.031      -1100.9157      15.940218      15.940218      15.940218     -1231.9979     -2429.6274     -1705.4678    
     22900   317.35685     -1210.3969     -974.84773      833.28816     -926.07048      15.892129      15.892129      15.892129      1224.4837      1484.766      -209.38528    
     23000   327.41501     -1215.4813     -972.46682      599.58682     -937.63691      15.851663      15.851663      15.851663      2133.3598      1308.0487     -1642.6481    
     23100   302.39832     -1224.1575     -999.71087     -316.97828     -1018.0489      15.830053      15.830053      15.830053      1174.347      -1415.5508     -709.73103    
     23200   286.66808     -1236.133      -1023.3617      844.78993     -974.67551      15.809827      15.809827      15.809827      762.9014       712.72886      1058.7395    
     23300   285.67359     -1236.0474     -1024.0143     -326.67475     -1042.8755      15.819508      15.819508      15.819508      2179.0679     -1524.0444     -1635.0478    
     23400   313.49585     -1254.5129     -1021.8295     -558.57683     -1054.292       15.854077      15.854077      15.854077      70.895695     -1655.4259     -91.200305    
     23500   299.89624     -1220.1398     -997.55034     -703.98909     -1038.842       15.902794      15.902794      15.902794     -626.71339     -1622.4139      137.16005    
     23600   315.49067     -1210.4026     -976.23855      126.27594     -968.80484      15.922202      15.922202      15.922202      1077.6584      95.357898     -794.18847    
     23700   333.57        -1216.9091     -969.32624      326.94791     -950.03339      15.934827      15.934827      15.934827      1070.8131     -1050.5045      960.53512    
     23800   296.97752     -1213.8571     -993.43391     -1147.0369     -1061.3395      15.952081      15.952081      15.952081     -786.87749     -2164.6122     -489.62111    
     23900   294.80783     -1226.3918     -1007.579      -315.34986     -1026.1477      15.923457      15.923457      15.923457      1149.3521      1337.3966     -3432.7983    
     24000   307.47226     -1236.6998     -1008.4872     -294.83263     -1025.6664      15.86781       15.86781       15.86781       229.99581      252.13944     -1366.6331    
     24100   288.86227     -1222.2336     -1007.8337      1157.2385     -941.25826      15.800537      15.800537      15.800537      1626.9224      1027.4908      817.30229    
     24200   329.27341     -1234.1545     -989.76062      429.8547      -965.3553       15.731216      15.731216      15.731216      1385.2994      928.39378     -1024.1291    
     24300   304.86697     -1212.9317     -986.65282      2833.0525     -827.39208      15.679278      15.679278      15.679278      2257.3797      3453.3064      2788.4714    
     24400   277.99764     -1216.7635     -1010.4276      480.35559     -983.29196      15.704859      15.704859      15.704859      2770.5207      650.968       -1980.4219    
     24500   286.3515      -1223.5771     -1011.0408      524.8465      -981.04443      15.76595       15.76595       15.76595       254.07947      271.56926      1048.8908    
     24600   302.42326     -1219.2455     -994.78042     -22.44465      -996.08577      15.857897      15.857897      15.857897     -293.84204     -173.22327      399.73136    
     24700   313.34215     -1210.8646     -978.29528     -1173.7133     -1047.6011      15.938374      15.938374      15.938374     -2034.1877     -147.7207      -1339.2315    
     24800   306.23379     -1210.7499     -983.45656     -540.64846     -1015.8229      16.011585      16.011585      16.011585      582.90652     -1134.2288     -1070.6231    
     24900   294.17618     -1223.2469     -1004.9029     -4253.1434     -1261.0909      16.044429      16.044429      16.044429     -6470.5554     -1796.9794     -4491.8954    
     25000   255.75035     -1223.0475     -1033.2241     -1090.8299     -1097.6539      15.939867      15.939867      15.939867     -3236.8672      221.59957     -257.22219    
     25100   301.674       -1247.0234     -1023.1144      1619.2173     -929.9724       15.799918      15.799918      15.799918      2130.1518      2353.3025      374.19754    
     25200   295.1355      -1225.3065     -1006.2505      3097.0892     -830.44886      15.730086      15.730086      15.730086      1122.6927      4262.1479      3906.427     
     25300   290.63081     -1214.1293     -998.41683     -377.73231     -1019.9492      15.752311      15.752311      15.752311     -3019.1707      511.43752      1374.5362    
     25400   307.91062     -1207.7338     -979.19589      100.17372     -973.46172      15.774182      15.774182      15.774182     -1560.0178      1395.0903      465.44873    
     25500   336.97036     -1222.8332     -972.72649      206.29431     -960.87294      15.794107      15.794107      15.794107     -1294.4744      1546.3867      366.97056    
     25600   316.36669     -1226.1167     -991.3025       550.23365     -959.44791      15.83372       15.83372       15.83372      -828.50231      2226.793       252.41025    
     25700   303.86691     -1228.9711     -1003.4345     -1665.2559     -1100.6012      15.875238      15.875238      15.875238      809.5082      -2477.4514     -3327.8246    
     25800   278.54266     -1209.7319     -1002.9915     -501.55538     -1032.2206      15.868653      15.868653      15.868653      1476.0997     -357.74344     -2623.0224    
     25900   306.64887     -1216.244      -988.64251     -56.369684     -991.91957      15.855771      15.855771      15.855771      2501.5207     -1432.7341     -1237.8956    
     26000   303.43762     -1192.0328     -966.81486      1398.1587     -885.71237      15.84409       15.84409       15.84409       292.19054      2218.966       1683.3195    
     26100   341.95605     -1202.5762     -948.76904      1460.5227     -863.76255      15.861928      15.861928      15.861928      25.578519      4090.1581      265.83148    
     26200   295.31011     -1197.5045     -978.3189       114.86073     -971.53866      15.936732      15.936732      15.936732     -1007.2228      1617.7392     -265.93422    
     26300   306.70788     -1220.7326     -993.08738     -2428.0819     -1138.0717      15.997814      15.997814      15.997814     -2174.4283     -4028.8411     -1080.9763    
     26400   292.25078     -1213.688      -996.77317     -1361.1421     -1077.9384      15.990554      15.990554      15.990554     -1512.2568     -595.97822     -1975.1912    
     26500   302.79661     -1239.2468     -1014.5046     -630.62749     -1051.6844      15.93014       15.93014       15.93014      -918.57396     -464.33099     -508.97752    
     26600   305.66536     -1248.4721     -1021.6007     -30.097056     -1023.35        15.854756      15.854756      15.854756     -279.14836      295.9043      -107.04711    
     26700   283.12565     -1247.9802     -1037.8382      793.33271     -992.29255      15.789629      15.789629      15.789629      139.38142      1641.8534      598.76329    
     26800   291.73777     -1253.4612     -1036.9271      1055.6649     -976.76425      15.751024      15.751024      15.751024      424.25081      355.1945       2387.5492    
     26900   304.13701     -1236.6827     -1010.9456      2039.5627     -894.61152      15.755471      15.755471      15.755471      1277.1799      2464.7253      2376.7828    
     27000   310.11861     -1229.5315     -999.35473      1669.9858     -902.91816      15.820408      15.820408      15.820408      2379.0354     -880.09843      3511.0205    
     27100   296.43984     -1225.6779     -1005.6538     -411.04047     -1029.8138      15.913976      15.913976      15.913976     -670.2582      -1862.7228      1299.8596    
     27200   266.47889     -1217.612      -1019.8256     -939.42733     -1075.6111      15.96838       15.96838       15.96838      -792.35706     -1348.541      -677.38391    
     27300   315.8854      -1231.9038     -997.44681     -640.94475     -1035.5046      15.96795       15.96795       15.96795      -888.46092     -481.21427     -553.15906    
     27400   314.5413      -1191.8539     -958.39447      344.81962     -937.98398      15.951267      15.951267      15.951267      2027.2331     -314.96021     -677.81401    
     27500   307.9977      -1201.2789     -972.67627      987.69345     -914.0524       15.965854      15.965854      15.965854      1565.4992     -455.7397       1853.3209    
     27600   285.61715     -1199.4544     -987.46315     -1652.7731     -1086.2933      16.00541       16.00541       16.00541      -729.6924      -2624.7929     -1603.8341    
     27700   316.87868     -1229.8897     -994.6955      -785.69465     -1041.6754      16.005192      16.005192      16.005192      474.51169     -2731.0604     -100.53522    
     27800   310.11483     -1223.3522     -993.17829     -474.5283      -1021.3846      15.973593      15.973593      15.973593     -548.03859     -1127.0656      251.51926    
     27900   294.40866     -1214.0401     -995.52356     -499.57887     -1024.9717      15.929159      15.929159      15.929159     -667.63028     -1435.7866      604.68031    
     28000   330.66968     -1227.0446     -981.61439     -779.39229     -1027.2278      15.891079      15.891079      15.891079     -1045.3871     -1408.3628      115.57302    
     28100   307.21664     -1210.1637     -982.14084     -372.54326     -1003.7923      15.854209      15.854209      15.854209      84.088395     -980.21288     -221.50528    
     28200   301.8501      -1218.2345     -994.19478      1059.6268     -933.07336      15.814478      15.814478      15.814478      430.88139     -168.53363      2916.5327    
     28300   291.19721     -1244.8937     -1028.7608      1485.2902     -943.09092      15.814192      15.814192      15.814192      2168.6915      1152.9695      1134.2095    
     28400   282.63001     -1239.5213     -1029.7472      7.2225433     -1029.3267      15.863606      15.863606      15.863606      281.18611     -449.8466       190.32812    
     28500   274.20819     -1217.64       -1014.1167      201.22075     -1002.28        15.918219      15.918219      15.918219     -308.22533     -354.86214      1266.7497    
     28600   288.18032     -1211.5958     -997.70212      808.00697     -949.65159      15.976037      15.976037      15.976037      2.5098872      2368.7448      52.766248    
     28700   296.7761      -1209.1921     -988.91845     -1307.6537     -1067.3783      16.02358       16.02358       16.02358      -2638.9762      736.85978     -2020.8448    
     28800   312.28982     -1211.7811     -979.99286     -1545.4288     -1072.6395      16.018981      16.018981      16.018981     -2438.2198     -870.91523     -1327.1515    
     28900   287.98203     -1205.0052     -991.25871      490.74766     -962.17943      15.956949      15.956949      15.956949      673.13953      1506.1519     -707.04844    
     29000   273.1338      -1233.7391     -1031.0133      214.42126     -1018.5131      15.870497      15.870497      15.870497     -754.41735      893.89153      503.78961    
     29100   280.71771     -1244.4289     -1036.0741      1586.0249     -944.95527      15.793346      15.793346      15.793346      654.68123      2046.1733      2057.2203    
     29200   299.54148     -1247.3833     -1025.0571      923.07617     -972.20608      15.775389      15.775389      15.775389      356.2164      -66.823455      2479.8356    
     29300   308.29251     -1232.2734     -1003.452       1545.7403     -914.29807      15.814035      15.814035      15.814035      2279.7712      1689.6728      667.77678    
     29400   299.37602     -1218.0928     -995.88944     -57.292706     -999.24817      15.900101      15.900101      15.900101     -1995.5817     -56.048144      1879.7517    
     29500   286.61796     -1231.2463     -1018.5122     -1192.2861     -1089.2961      15.9671        15.9671        15.9671       -606.49326     -964.53538     -2005.8297    
     29600   306.71798     -1239.9148     -1012.2621     -205.35532     -1024.5039      15.989013      15.989013      15.989013     -528.10217     -1335.3269      1247.3631    
     29700   300.8113      -1233.4814     -1010.2128      93.859618     -1004.608       15.998027      15.998027      15.998027      1348.1159     -1139.2079      72.670936    
     29800   326.43865     -1227.8213     -985.53147     -627.53971     -1023.1089      16.012907      16.012907      16.012907     -499.61665      694.41197     -2077.4144    
     29900   327.55983     -1207.7343     -964.61229     -217.23871     -977.66446      16.030853      16.030853      16.030853      200.80043     -889.01296      36.496411    
     30000   325.87015     -1209.9416     -968.07375     -1576.1827     -1062.9319      16.039743      16.039743      16.039743     -1362.8752     -1236.7596     -2128.9134    
     30100   293.04726     -1213.6401     -996.13403     -1491.0038     -1085.236       16.00212       16.00212       16.00212      -1786.2914     -511.9203      -2174.7995    
     30200   302.44178     -1237.249      -1012.7701     -1171.5685     -1081.7001      15.919211      15.919211      15.919211     -50.588894      190.52458     -3654.641     
     30300   292.44204     -1231.7599     -1014.7031      480.96589     -986.94303      15.8177        15.8177        15.8177       -1517.2401      1654.4063      1305.7315    
     30400   307.16587     -1221.6735     -993.68834      2291.1943     -863.38778      15.739931      15.739931      15.739931      2585.906       3402.3764      885.30041    
     30500   325.28617     -1231.9392     -990.50478      1042.6304     -931.34197      15.728267      15.728267      15.728267      3738.9165      1796.6788     -2407.7042    
     30600   325.44323     -1258.0585     -1016.5074     -1035.8855     -1075.5429      15.751015      15.751015      15.751015      55.445224     -403.01986     -2760.0819    
     30700   275.53326     -1241.6385     -1037.1317     -501.17299     -1065.6658      15.745869      15.745869      15.745869      450.70013     -66.056243     -1888.1629    
     30800   292.62047     -1242.1219     -1024.9326     -606.25039     -1059.2692      15.718446      15.718446      15.718446     -1009.2385      1300.6406     -2110.1533    
     30900   322.30643     -1251.7676     -1012.5447      724.64905     -971.67362      15.696554      15.696554      15.696554      414.13811      1337.3808      422.42826    
     31000   319.23244     -1240.2828     -1003.3416      1096.457      -941.48052      15.698206      15.698206      15.698206      931.70838      808.05842      1549.6041    
     31100   273.28029     -1225.3685     -1022.534       737.22457     -980.71754      15.726197      15.726197      15.726197      348.84804      854.28351      1008.5422    
     31200   278.02887     -1237.6451     -1031.286      -1414.5254     -1111.9254      15.752648      15.752648      15.752648     -1608.1436     -1122.866      -1512.5666    
     31300   293.44384     -1249.8437     -1032.0433      1581.7173     -941.93904      15.748777      15.748777      15.748777      2086.0644      1698.4581      960.62933    
     31400   327.47009     -1262.3584     -1019.3029     -1243.0461     -1090.4723      15.775265      15.775265      15.775265     -1697.0151      565.63525     -2597.7584    
     31500   280.78085     -1228.2638     -1019.8622      476.42649     -992.46248      15.79882       15.79882       15.79882       701.88435      1767.5661     -1040.171     
     31600   328.83587     -1245.8918     -1001.8227     -553.65465     -1033.7833      15.818555      15.818555      15.818555     -1405.5007      779.20626     -1034.6695    
     31700   326.99703     -1239.2438     -996.53947      1035.4593     -936.6447       15.829238      15.829238      15.829238      2806.1221      131.80595      168.44995    
     31800   308.89356     -1245.3421     -1016.0746     -605.4482      -1051.4266      15.878897      15.878897      15.878897     -746.48197     -276.81139     -793.05125    
     31900   293.86052     -1234.4796     -1016.3699      236.79475     -1002.4269      15.923425      15.923425      15.923425      164.69663      873.47874     -327.79113    
     32000   283.71572     -1224.9003     -1014.3204      1078.7157     -950.44804      15.953034      15.953034      15.953034      735.93532      641.38303      1858.8287    
     32100   276.73328     -1209.579      -1004.1816      545.14731     -971.48275      16.021903      16.021903      16.021903      1196.2542     -102.20479      541.39252    
     32200   315.97395     -1217.9102     -983.38744     -897.20609     -1038.0376      16.104274      16.104274      16.104274     -1672.4654      898.91971     -1918.0725    
     32300   300.79244     -1208.4844     -985.22973     -1766.8211     -1093.7215      16.147655      16.147655      16.147655     -3235.6103     -2852.0945      787.24149    
     32400   306.14028     -1211.3998     -984.17581     -2426.0991     -1132.384       16.11991       16.11991       16.11991      -3949.3725     -1868.5965     -1460.3282    
     32500   292.8086      -1224.6097     -1007.2808      426.03721     -981.73261      16.020606      16.020606      16.020606     -1141.8461      366.45147      2053.5062    
     32600   289.61954     -1262.2134     -1047.2515      1198.1082     -976.71129      15.922878      15.922878      15.922878      522.27247      2150.4264      921.62577    
     32700   263.88068     -1248.018      -1052.1601      2486.3225     -907.17468      15.871951      15.871951      15.871951     -186.89878      5295.6871      2350.1791    
     32800   298.67211     -1251.7678     -1030.0869      1589.5843     -936.74427      15.908902      15.908902      15.908902      1033.6815      2190.8704      1544.2011    
     32900   305.22749     -1238.4353     -1011.8888     -219.91432     -1025.081       16.022473      16.022473      16.022473     -988.30081     -1087.6117      1416.1696    
     33000   287.86814     -1214.6457     -1000.9838     -2386.6733     -1147.1088      16.131892      16.131892      16.131892     -1879.3425     -2302.9805     -2977.6968    
     33100   302.36355     -1195.5245     -971.10367     -919.54335     -1027.7825      16.16805       16.16805       16.16805      -1161.9979      374.46841     -1971.1005    
     33200   313.01661     -1203.4767     -971.14902     -372.55253     -994.11089      16.167687      16.167687      16.167687     -2263.8334     -73.941857      1220.1177    
     33300   298.1307      -1204.3895     -983.11042     -1152.751      -1054.1017      16.163345      16.163345      16.163345     -304.2342      -1770.5104     -1383.5085    
     33400   270.78982     -1205.2058     -1004.2197     -1605.2658     -1102.5073      16.13214       16.13214       16.13214      -1523.9966     -1882.3803     -1409.4205    
     33500   304.16561     -1210.7369     -984.9786       412.34715     -960.06335      16.061105      16.061105      16.061105     -394.72392      993.5044       638.26098    
     33600   304.02232     -1211.0651     -985.41312      1268.8563     -909.79063      15.987757      15.987757      15.987757      1359.1331      2923.5092     -476.07322    
     33700   298.59322     -1223.5356     -1001.9132      788.90565     -955.2714       15.945015      15.945015      15.945015      110.49493      1723.4578      532.7642     
     33800   302.69528     -1238.4558     -1013.7888     -722.67119     -1056.4393      15.935638      15.935638      15.935638     -933.83356     -1294.1733      59.993335    
     33900   289.22543     -1225.8552     -1011.1858     -578.99638     -1045.3054      15.927619      15.927619      15.927619     -1076.7164      477.34559     -1137.6183    
     34000   297.09475     -1215.9036     -995.39343      541.95989     -963.56926      15.908821      15.908821      15.908821      1205.7055     -674.20226      1094.3764    
     34100   311.99498     -1224.0932     -992.52372     -675.74835     -1032.1322      15.899214      15.899214      15.899214     -1911.5139     -161.24077      45.50961     
     34200   326.42437     -1236.9307     -994.65145     -522.68932     -1025.233       15.889622      15.889622      15.889622     -1888.9223      540.34329     -219.48893    
     34300   300.78262     -1233.091      -1009.8436      294.32435     -992.60673      15.894685      15.894685      15.894685      157.95307      1337.2752     -612.25523    
     34400   288.69062     -1236.7527     -1022.4802     -899.43854     -1075.2764      15.906876      15.906876      15.906876     -3002.8278      1288.0789     -983.56671    
     34500   292.48633     -1226.0038     -1008.9141     -1257.6737     -1082.3253      15.877158      15.877158      15.877158     -2660.4412     -404.68001     -707.89996    
     34600   316.61573     -1222.683      -987.68395      1380.0509     -907.97324      15.821533      15.821533      15.821533      2755.1242     -284.26362      1669.292     
     34700   299.96803     -1212.6658     -990.02299      1325.5401     -913.44945      15.822314      15.822314      15.822314      230.73102      3055.1806      690.70873    
     34800   344.62842     -1250.0265     -994.23578     -232.60492     -1007.835       15.885682      15.885682      15.885682     -2839.5921      1484.9179      656.85949    
     34900   294.47057     -1234.9104     -1016.348      -334.0814      -1036.1779      15.966061      15.966061      15.966061     -235.47238      434.5191      -1201.2909    
     35000   279.57011     -1215.8878     -1008.3848     -1287.566      -1085.5765      16.019234      16.019234      16.019234     -3686.8226     -155.24487     -20.63048     
     35100   308.44108     -1214.2348     -985.30314     -1494.3584     -1074.9151      16.020588      16.020588      16.020588     -1581.6302     -1053.6883     -1847.7566    
     35200   277.93916     -1197.5199     -991.22743      385.14995     -968.34973      15.969899      15.969899      15.969899     -946.40907      788.13134      1313.7276    
     35300   319.02027     -1219.6883     -982.90453     -2844.0249     -1149.4277      15.893582      15.893582      15.893582     -2260.1343     -3298.6416     -2973.2987    
     35400   307.49836     -1212.6768     -984.44485      1104.6776     -921.34985      15.7626        15.7626        15.7626        1620.8968      391.62756      1301.5084    
     35500   301.61411     -1229.5775     -1005.713       1298.3274     -932.8979       15.667046      15.667046      15.667046      1110.1535      1814.0989      970.72989    
     35600   293.63355     -1250.8926     -1032.9514      261.78786     -1018.4071      15.617901      15.617901      15.617901      589.51611      320.16416     -124.3167     
     35700   289.69654     -1243.2362     -1028.2172      232.34075     -1015.3601      15.5972        15.5972        15.5972       -580.03895      892.25613      384.80507    
     35800   297.29402     -1246.3715     -1025.7134      1232.324      -957.51171      15.597851      15.597851      15.597851     -1616.0274      3684.4414      1628.5581    
     35900   301.73226     -1226.2737     -1002.3215      1828.5858     -900.44539      15.63245       15.63245       15.63245       1404.6523      2150.7929      1930.312     
     36000   321.47552     -1224.0264     -985.42033      2191.5855     -861.70925      15.700908      15.700908      15.700908      942.77269      2917.1411      2714.8426    
     36100   290.19994     -1226.3594     -1010.9667     -901.43904     -1062.9217      15.810232      15.810232      15.810232     -1966.7115      494.43913     -1232.0448    
     36200   287.34322     -1227.883      -1014.6107     -2238.3765     -1145.2726      15.877423      15.877423      15.877423     -2442.1734     -2382.0865     -1890.8697    
     36300   291.27621     -1212.3962     -996.20464     -1356.8059     -1075.0546      15.853896      15.853896      15.853896     -993.42866      1750.1241     -4827.1131    
     36400   310.61235     -1218.6702     -988.12693     -557.9699      -1020.245       15.803541      15.803541      15.803541     -1275.4841      121.28191     -519.70757    
     36500   305.57793     -1222.6363     -995.82975     -428.2874      -1020.2681      15.757478      15.757478      15.757478     -753.8582      -1631.6071      1100.6031    
     36600   271.20623     -1212.1178     -1010.8226      1506.6063     -925.69348      15.70607       15.70607       15.70607       1546.3007      1370.479       1603.0393    
     36700   320.53015     -1228.8094     -990.90492      566.3426      -959.06938      15.679025      15.679025      15.679025     -731.87046      3541.8061     -1110.9078    
     36800   324.42692     -1208.7719     -967.97523      1130.8653     -904.29074      15.688532      15.688532      15.688532      1726.3285      1977.3409     -311.07344    
     36900   313.00249     -1213.0715     -980.75429     -783.54953     -1025.1761      15.723574      15.723574      15.723574     -2126.9168     -650.61686      426.88504    
     37000   292.44717     -1226.0404     -1008.9798      39.674263     -1006.7271      15.731513      15.731513      15.731513      63.496814      676.45817     -620.93219    
     37100   288.71732     -1240.02       -1025.7277      332.01574     -1006.8834      15.72951       15.72951       15.72951       982.96689      566.47874     -553.39841    
     37200   305.06608     -1247.859      -1021.4324     -643.55102     -1057.9106      15.722621      15.722621      15.722621     -1163.3897     -683.39498     -83.868361    
     37300   306.20281     -1241.7048     -1014.4344     -849.11269     -1062.3968      15.704354      15.704354      15.704354     -1565.1465     -1099.6329      117.44129    
     37400   307.88793     -1245.2777     -1016.7566      1676.7335     -922.40719      15.684348      15.684348      15.684348      841.77391      3132.1027      1056.3238    
     37500   297.09519     -1238.9891     -1018.4786     -148.67577     -1026.8769      15.704527      15.704527      15.704527     -2.699149       223.78279     -667.11096    
     37600   296.18468     -1227.9596     -1008.1249     -785.72286     -1052.655       15.721823      15.721823      15.721823      1312.3087     -1102.672      -2566.8053    
     37700   287.40232     -1214.4845     -1001.1682     -107.78205     -1007.2847      15.728739      15.728739      15.728739      327.46592      120.78185     -771.59394    
     37800   289.41531     -1203.8573     -989.04695      1828.5383     -884.85217      15.750294      15.750294      15.750294      2602.8942      2604.4974      278.2234     
     37900   303.17937     -1223.9583     -998.93203     -1452.6197     -1082.4405      15.796741      15.796741      15.796741     -532.33837     -2856.6275     -968.89322    
     38000   278.95167     -1225.2458     -1018.2018     -1003.7695     -1076.0367      15.808602      15.808602      15.808602     -591.48717      1099.594      -3519.4154    
     38100   303.73894     -1225.4737     -1000.0321      708.88858     -959.40571      15.780401      15.780401      15.780401      2200.9339      1151.1752     -1225.4434    
     38200   311.48989     -1230.5149     -999.32035      109.77112     -993.03106      15.778983      15.778983      15.778983      1600.686       153.45111     -1424.8238    
     38300   311.46654     -1253.8143     -1022.6371      783.39872     -977.54742      15.802995      15.802995      15.802995      2616.0123      1029.1124     -1294.9285    
     38400   280.74478     -1237.4844     -1029.1095     -558.63248     -1061.6207      15.861466      15.861466      15.861466     -970.78399     -128.93353     -576.17993    
     38500   301.42605     -1248.3158     -1024.5908     -70.891634     -1028.7482      15.90196       15.90196       15.90196      -268.22412      1382.8293     -1327.2801    
     38600   304.89597     -1232.207      -1005.9066     -316.51966     -1024.5829      15.934483      15.934483      15.934483     -1733.6576      975.19946     -191.10082    
     38700   303.84484     -1207.563      -982.04271      351.16181     -961.2278       15.958686      15.958686      15.958686      1577.7952     -992.3014       467.9916     
     38800   308.44909     -1204.5063     -975.56872      2.0288042     -975.44771      15.991741      15.991741      15.991741     -1258.0553      2098.9449     -834.80319    
     38900   289.30685     -1167.9022     -953.17239     -296.84784     -970.98773      16.024882      16.024882      16.024882     -1379.682       542.88787     -53.749366    
     39000   327.12409     -1170.9557     -928.15711     -445.6734      -955.09304      16.062499      16.062499      16.062499      873.15022      378.24398     -2588.4144    
     39100   313.49465     -1189.1726     -956.49003      116.92726     -949.41049      16.072046      16.072046      16.072046      2312.8688     -1317.7036     -644.38334    
     39200   294.45839     -1184.3132     -965.7598      -1816.9284     -1075.4042      16.054282      16.054282      16.054282     -2522.5025     -538.75695     -2389.5259    
     39300   300.53235     -1204.8598     -981.79813     -1407.7546     -1065.331       15.964363      15.964363      15.964363     -1772.7537     -1058.3738     -1392.1364    
     39400   280.47323     -1210.8294     -1002.656       655.16929     -964.8973       15.809908      15.809908      15.809908      891.24129      1095.2364     -20.969809    
     39500   318.03617     -1228.4073     -992.3539       378.16519     -971.04454      15.691738      15.691738      15.691738      904.68722     -1205.2691      1435.0775    
     39600   349.00312     -1225.1163     -966.07858      4242.9409     -729.0916       15.645659      15.645659      15.645659      5220.5597      2842.2808      4665.9823    
     39700   325.75194     -1212.03       -970.24981     -301.18443     -987.3611       15.734688      15.734688      15.734688      170.72721     -1386.8897      312.6092     
     39800   297.25011     -1216.3913     -995.76578     -1350.2984     -1073.9078      15.831656      15.831656      15.831656     -1689.4688     -2060.0938     -301.33265    
     39900   292.0059      -1217.0023     -1000.2692     -491.90473     -1028.9878      15.878224      15.878224      15.878224     -228.23892      23.590238     -1271.0655    
     40000   299.94441     -1219.0663     -996.44103     -878.75187     -1047.9282      15.897144      15.897144      15.897144     -241.28872      228.98806     -2623.955     
     40100   304.46037     -1223.8804     -997.90333     -516.63239     -1028.109       15.88585       15.88585       15.88585      -1490.2046      1373.4875     -1433.1801    
     40200   299.93698     -1240.1006     -1017.4808     -1671.4587     -1114.5736      15.851552      15.851552      15.851552     -2381.0888     -282.35087     -2350.9364    
     40300   284.53895     -1247.2886     -1036.0977      601.16409     -1001.6238      15.78364       15.78364       15.78364       1158.599       268.06652      376.82676    
     40400   301.82812     -1252.5721     -1028.5487      744.82897     -986.17468      15.741852      15.741852      15.741852      447.85431      1894.992      -108.35943    
     40500   315.97189     -1234.4637     -999.94252      1621.522      -907.57388      15.748599      15.748599      15.748599      2021.9256      744.38184      2098.2586    
     40600   310.63058     -1223.1762     -992.61949     -629.88181     -1028.9669      15.816589      15.816589      15.816589     -1109.0548      205.72582     -986.31648    
     40700   300.36322     -1219.454      -996.51789      331.8738      -977.14356      15.877885      15.877885      15.877885      316.52805      497.12221      181.97114    
     40800   273.78849     -1222.9515     -1019.7397     -1381.1477     -1101.2726      15.936967      15.936967      15.936967     -1963.0716     -321.49415     -1858.8773    
     40900   268.30092     -1241.2696     -1042.1308     -1419.3116     -1126.106       15.948962      15.948962      15.948962     -152.0368      -1853.1075     -2252.7905    
     41000   285.97237     -1234.6314     -1022.3765     -1306.8686     -1098.9839      15.899653      15.899653      15.899653     -2413.4339      296.22186     -1803.3937    
     41100   292.15637     -1231.7097     -1014.8649     -736.17398     -1057.3517      15.817311      15.817311      15.817311      84.141882     -789.03131     -1503.6325    
     41200   276.6754      -1214.1553     -1008.8008      1438.7351     -926.76403      15.753753      15.753753      15.753753      2698.9929      2677.0805     -1059.8682    
     41300   305.9872      -1220.3269     -993.21653     -1121.1399     -1056.4224      15.694255      15.694255      15.694255     -2150.5764      1036.5411     -2249.3843    
     41400   315.17566     -1214.8552     -980.92494      1622.5685     -890.6385       15.626002      15.626002      15.626002      2301.5577      1725.3124      840.83528    
     41500   319.99725     -1229.6846     -992.17574      1796.0895     -892.17215      15.629218      15.629218      15.629218      2671.7126      2105.8646      610.6912     
     41600   305.23317     -1235.4592     -1008.9086      633.02242     -973.21751      15.694764      15.694764      15.694764      1606.5279      1024.5658     -732.02643    
     41700   261.52398     -1205.3284     -1011.2196     -557.10016     -1043.0953      15.771878      15.771878      15.771878     -1550.7827      357.32669     -477.84444    
     41800   303.27684     -1209.3505     -984.25184     -1814.435      -1088.6149      15.799496      15.799496      15.799496     -1993.6373     -2567.1597     -882.5078     
     41900   311.33493     -1206.8492     -975.76971      1195.2654     -907.2473       15.782076      15.782076      15.782076     -389.22007      4567.816      -592.79968    
     42000   314.03723     -1219.1674     -986.08211     -1152.7801     -1052.2907      15.791765      15.791765      15.791765     -2961.0801      319.53337     -816.79368    
     42100   299.84726     -1224.5284     -1001.9753     -776.68674     -1046.6183      15.795889      15.795889      15.795889     -1579.1481      683.05944     -1433.9715    
     42200   292.14015     -1244.7124     -1027.8796     -1317.8332     -1103.2286      15.768134      15.768134      15.768134     -3472.2005     -2010.2908      1528.9918    
     42300   275.11365     -1228.6873     -1024.492       419.77139     -1000.725       15.716709      15.716709      15.716709      383.07184      969.25462     -93.012277    
     42400   293.71861     -1224.2053     -1006.201       97.34313      -1000.7207      15.687083      15.687083      15.687083      803.83062     -36.643569     -475.15766    
     42500   305.49309     -1224.0661     -997.32245      257.28946     -982.87578      15.673164      15.673164      15.673164      983.59974      696.63992     -908.37129    
     42600   286.72098     -1209.9308     -997.12031      2348.5881     -865.0099       15.682601      15.682601      15.682601      564.4304       3557.1079      2924.226     
     42700   292.26521     -1225.6978     -1008.7722      1038.803      -949.52548      15.754998      15.754998      15.754998      1222.6391      1058.7966      834.97336    
     42800   285.32295     -1228.5623     -1016.7894     -2065.244      -1136.9054      15.858101      15.858101      15.858101     -1404.397      -3031.8523     -1759.4826    
     42900   283.61431     -1231.7875     -1021.2828     -1163.2937     -1089.5301      15.904016      15.904016      15.904016     -454.13792      1413.3371     -4449.0803    
     43000   290.91941     -1218.7639     -1002.8372     -1377.6221     -1083.5751      15.898531      15.898531      15.898531      1918.8065     -3614.1574     -2437.5154    
     43100   296.40235     -1209.904      -989.90778      253.20466     -975.17733      15.859499      15.859499      15.859499      1690.2519     -715.28782     -215.3501     
     43200   301.04572     -1198.8629     -975.42025     -505.40886     -1004.5631      15.812651      15.812651      15.812651     -678.51666     -1293.0662      455.35632    
     43300   301.12424     -1200.5504     -977.04944      1065.6514     -916.24525      15.757265      15.757265      15.757265      1274.6157      1638.4069      283.93178    
     43400   284.75339     -1207.5265     -996.1764       151.01794     -987.60429      15.729965      15.729965      15.729965      1284.8897     -856.94567      25.109826    
     43500   271.15847     -1224.8777     -1023.618      -1240.6688     -1093.5832      15.695797      15.695797      15.695797     -549.80606     -151.55163     -3020.6486    
     43600   289.69448     -1229.39       -1014.3725      701.0689      -975.37639      15.624094      15.624094      15.624094      1269.1577      1597.9194     -763.87042    
     43700   321.40324     -1239.7238     -1001.1714      29.997955     -999.52523      15.553716      15.553716      15.553716      106.23231      1105.8411     -1122.0795    
     43800   286.19443     -1230.1722     -1017.7525      2146.2518     -900.51339      15.530018      15.530018      15.530018      1823.7202      1524.8761      3090.1592    
     43900   303.26864     -1240.6821     -1015.5895      260.73699     -1001.2079      15.580312      15.580312      15.580312      887.92045      658.29479     -764.00426    
     44000   295.97672     -1218.7258     -999.04545      101.37968     -993.37188      15.655847      15.655847      15.655847     -715.21645      1870.028      -850.67254    
     44100   297.28207     -1208.0507     -987.40154     -1462.5121     -1070.1362      15.712215      15.712215      15.712215     -298.86913     -2298.972      -1789.6952    
[...]
     91200   294.75458     -1255.2815     -1036.5083      1447.4497     -954.43544      15.724375      15.724375      15.724375      3447.1168      754.62794      140.60428    
     91300   276.81183     -1249.2174     -1043.7617     -1412.4962     -1124.8412      15.788803      15.788803      15.788803     -2329.2552     -408.14187     -1500.0916    
     91400   285.3709      -1240.8281     -1029.0196     -2321.3903     -1162.5733      15.800734      15.800734      15.800734     -3343.3595     -785.14132     -2835.6701    
     91500   300.5979      -1228.0624     -1004.9521      525.96576     -975.03809      15.740331      15.740331      15.740331      2292.0145     -450.70875     -263.40848    
     91600   312.26578     -1232.2983     -1000.5279      1754.3417     -901.58015      15.696587      15.696587      15.696587      2703.6801      3603.2798     -1043.9347    
     91700   310.01434     -1233.5395     -1003.4401      2405.6126     -867.2784       15.715123      15.715123      15.715123      2444.0865      4057.4704      715.28106    
     91800   284.30424     -1231.2367     -1020.22       -1126.5259     -1085.0366      15.801191      15.801191      15.801191     -671.8945       209.51412     -2917.1972    
     91900   262.1503      -1229.3718     -1034.7982     -2474.5517     -1178.65        15.855536      15.855536      15.855536     -2679.1049     -997.14595     -3747.4041    
     92000   271.7043      -1246.7329     -1045.0681     -1212.7844     -1115.2733      15.833249      15.833249      15.833249     -502.45825      158.43912     -3294.3342    
     92100   305.07493     -1250.7061     -1024.2728     -628.43354     -1060.2161      15.769851      15.769851      15.769851     -1547.7618     -516.58877      179.04995    
     92200   297.2525      -1237.8555     -1017.2283     -273.17111     -1032.5972      15.683533      15.683533      15.683533     -1711.6045      619.70368      272.38751    
     92300   303.4329      -1240.4898     -1015.2753      2228.7312     -891.5859       15.612279      15.612279      15.612279      3363.3483      1012.0442      2310.8009    
     92400   283.44463     -1229.2035     -1018.8247      1828.3723     -917.64153      15.597534      15.597534      15.597534      2487.651       107.92665      2889.5394    
     92500   298.53203     -1235.392      -1013.8151      712.94755     -974.16803      15.622811      15.622811      15.622811      353.97323      3052.5188     -1267.6494    
     92600   319.20041     -1241.0516     -1004.1341      1553.425      -916.75179      15.68264       15.68264       15.68264       2851.6164     -85.090604      1893.7491    
     92700   308.40042     -1231.3862     -1002.4847     -947.67595     -1056.8734      15.787891      15.787891      15.787891      774.0612      -1337.2638     -2279.8252    
     92800   278.58767     -1227.2766     -1020.5028     -687.52959     -1060.3953      15.845572      15.845572      15.845572     -490.85819      1022.6716     -2594.4022    
     92900   291.98729     -1247.2422     -1030.5229     -718.14962     -1072.1882      15.84509       15.84509       15.84509       991.98011      170.24177     -3316.6707    
     93000   304.37422     -1240.9245     -1015.0114      100.69284     -1009.192       15.824673      15.824673      15.824673     -487.54732      2221.8049     -1432.1791    
     93100   301.52336     -1217.6482     -993.851        2670.8493     -839.67705      15.818376      15.818376      15.818376      3274.8505      3604.9326      1132.7649    
     93200   310.21463     -1221.8019     -991.55386      55.862755     -988.30016      15.865721      15.865721      15.865721     -131.04165      970.08139     -671.45148    
     93300   285.16582     -1225.908      -1014.2517     -991.05104     -1072.3608      15.900984      15.900984      15.900984      65.774375     -1259.2087     -1779.7188    
     93400   282.7786      -1225.5866     -1015.7022     -433.66581     -1041.0217      15.878437      15.878437      15.878437      388.32912     -330.68934     -1358.6372    
     93500   306.4662      -1232.1581     -1004.6922      402.07865     -981.36158      15.845762      15.845762      15.845762      942.24779      2135.8541     -1871.866     
     93600   298.4249      -1223.3956     -1001.8982      126.4531      -994.58681      15.826983      15.826983      15.826983      2985.0201     -2480.6837     -124.9771     
     93700   297.77723     -1241.8144     -1020.7977      203.55734     -1009.0927      15.798037      15.798037      15.798037      457.75068      1172.0931     -1019.1717    
     93800   257.42559     -1235.0151     -1043.9482     -451.69369     -1069.8086      15.775078      15.775078      15.775078     -1142.4125      813.43186     -1026.1005    
     93900   300.40358     -1264.9697     -1042.0036     -243.40867     -1055.8592      15.744824      15.744824      15.744824      24.569098      402.3149      -1157.11      
     94000   311.72545     -1248.122      -1016.7526      314.90298     -998.94142      15.711345      15.711345      15.711345      114.68002      1940.7959     -1110.767     
     94100   313.19805     -1236.1919     -1003.7295      336.61801     -984.71564      15.704323      15.704323      15.704323      2179.2757      663.75789     -1833.1795    
     94200   328.82609     -1248.5796     -1004.5178      770.58948     -960.82454      15.724314      15.724314      15.724314     -25.101855      1092.6141      1244.2562    
     94300   282.44771     -1224.3996     -1014.7608     -7.1794927     -1015.172       15.776367      15.776367      15.776367     -389.02227     -0.50056577     367.98435    
     94400   298.80448     -1233.0412     -1011.262      -565.14992     -1043.9652      15.831298      15.831298      15.831298     -1025.6862     -338.5076      -331.25593    
     94500   296.86646     -1228.759      -1008.4182     -2439.2195     -1150.7062      15.873784      15.873784      15.873784     -2182.7934     -3009.7303     -2125.1349    
     94600   308.50956     -1211.1671     -982.18458      736.47089     -939.36467      15.856407      15.856407      15.856407     -631.7466       2267.0979      574.06132    
     94700   313.61089     -1212.2681     -979.49933      1498.3673     -892.41895      15.854116      15.854116      15.854116      3113.6528      105.47478      1275.9744    
     94800   301.56163     -1212.4953     -988.66976     -1093.5015     -1052.6581      15.890416      15.890416      15.890416     -826.12308     -56.24923      -2398.1321    
     94900   290.47826     -1215.587      -999.9877      -2431.061      -1142.2303      15.889832      15.889832      15.889832     -1351.9703     -2510.6401     -3430.5727    
     95000   292.03514     -1226.2756     -1009.5208     -69.343594     -1013.519       15.81221       15.81221       15.81221      -213.09146      2845.5096     -2840.4489    
     95100   275.60118     -1242.3816     -1037.8244      1025.7748     -979.79195      15.712585      15.712585      15.712585     -40.04771       1466.7929      1650.5794    
     95200   271.61827     -1258.2252     -1056.6242      1769.6552     -957.69821      15.650034      15.650034      15.650034      1861.2945      2761.3344      686.33667    
     95300   285.02365     -1266.4496     -1054.8988      1700.4637     -959.78768      15.652946      15.652946      15.652946      2088.7612      3427.1058     -414.47593    
     95400   285.74076     -1252.9478     -1040.8648      915.54284     -989.02715      15.716781      15.716781      15.716781      1320.2126      1088.3655      338.05041    
     95500   287.65167     -1230.8737     -1017.3724     -899.65235     -1069.0873      15.796294      15.796294      15.796294     -1060.8732      427.42851     -2065.5124    
     95600   290.61057     -1225.5063     -1009.8088     -344.38368     -1029.8219      15.853746      15.853746      15.853746     -943.01018      1340.5605     -1430.7013    
     95700   302.26854     -1209.5402     -985.18993     -683.25593     -1025.2026      15.894471      15.894471      15.894471     -2170.5884      67.374847      53.44577     
     95800   334.21815     -1223.7867     -975.72272      546.27414     -943.71983      15.896478      15.896478      15.896478     -386.40496      1700.947       324.28037    
     95900   278.83081     -1228.4053     -1021.4511     -933.04402     -1076.0691      15.892274      15.892274      15.892274     -312.80279     -938.41174     -1547.9175    
     96000   293.91971     -1241.0317     -1022.8781     -320.89331     -1041.5927      15.872592      15.872592      15.872592     -784.6644       364.19732     -542.21285    
     96100   331.98503     -1253.0972     -1006.6907     -1227.3465     -1077.8223      15.839435      15.839435      15.839435     -3671.1009     -277.88043      266.94179    
     96200   338.80893     -1246.6793     -995.20797     -790.40902     -1040.5401      15.784327      15.784327      15.784327     -2244.0753     -21.216575     -105.93517    
     96300   289.17827     -1231.9288     -1017.2944      1737.8996     -918.3156       15.747583      15.747583      15.747583      3527.5851      2232.0721     -545.95849    
     96400   284.46531     -1237.0146     -1025.8783      604.06502     -991.33806      15.768438      15.768438      15.768438      976.24589      48.393921      787.55524    
     96500   319.05655     -1251.9916     -1015.1809     -1048.0482     -1075.5719      15.809018      15.809018      15.809018     -2358.9856     -670.98332     -114.17576    
     96600   275.04047     -1238.6778     -1034.5368     -1030.9089     -1093.9938      15.813781      15.813781      15.813781     -888.88208     -1251.4213     -952.42318    
     96700   289.31984     -1236.4442     -1021.7048      588.72411     -987.93493      15.785092      15.785092      15.785092      3622.4612     -1346.9975     -509.2914     
     96800   312.1692      -1228.2006     -996.50186      831.94996     -948.94299      15.767135      15.767135      15.767135      1110.8951      140.48206      1244.4727    
     96900   292.36309     -1222.0188     -1005.0206     -303.68127     -1022.4121      15.776649      15.776649      15.776649      1155.2998     -1021.1474     -1045.1961    
     97000   297.79189     -1240.5909     -1019.5633     -1658.9164     -1114.5665      15.776572      15.776572      15.776572     -1705.1143     -1854.1541     -1417.4807    
     97100   289.16645     -1262.7672     -1048.1416     -1875.4769     -1154.3621      15.71835       15.71835       15.71835       29.009717     -3251.7832     -2403.6572    
     97200   275.00949     -1259.7807     -1055.6626      1764.0764     -957.86626      15.606655      15.606655      15.606655      1326.1594      2286.795       1679.2748    
     97300   302.41061     -1267.537      -1043.0813      2174.9749     -923.74539      15.552983      15.552983      15.552983      4873.6898      2674.5101     -1023.2753    
     97400   314.03235     -1250.9264     -1017.8448      1006.5571     -962.19179      15.592822      15.592822      15.592822      1465.6887      1411.8827      142.10003    
     97500   317.94149     -1248.4005     -1012.4174     -232.22597     -1025.4443      15.66815       15.66815       15.66815      -861.00464      0.7204196      163.60632    
     97600   278.9509      -1248.0649     -1041.0215     -714.56341     -1081.5971      15.731962      15.731962      15.731962     -860.63606     -1928.8965      645.84233    
     97700   304.5889      -1274.8797     -1048.8072     -841.23369     -1096.9708      15.775226      15.775226      15.775226     -105.51783     -451.11952     -1967.0637    
     97800   292.02909     -1249.8676     -1033.1173     -919.11898     -1086.1678      15.817842      15.817842      15.817842     -1451.9754      1067.8944     -2373.2759    
     97900   309.16145     -1239.537      -1010.0707     -1190.9149     -1078.9936      15.831998      15.831998      15.831998      451.11369     -2037.9952     -1985.8633    
     98000   331.22237     -1251.1091     -1005.2687     -808.9533      -1051.8767      15.808378      15.808378      15.808378     -1108.7616      272.37242     -1590.4707    
     98100   280.39132     -1230.9463     -1022.8338      911.88606     -970.65485      15.772221      15.772221      15.772221      3369.994      -775.18965      140.85386    
     98200   306.08282     -1278.2409     -1051.0596     -899.58903     -1102.3711      15.75548       15.75548       15.75548      -484.57993     -904.7066      -1309.4806    
     98300   296.01272     -1281.1496     -1061.4426     -510.92556     -1090.4366      15.728664      15.728664      15.728664     -235.64371      79.747996     -1376.881     
     98400   307.69035     -1278.6683     -1050.2939      1430.4874     -969.64032      15.694753      15.694753      15.694753      2175.0044      1173.2907      943.16719    
     98500   309.23927     -1263.3923     -1033.8682      1474.065      -950.66027      15.700885      15.700885      15.700885      2288.5708      2101.2402      32.384066    
     98600   310.32282     -1241.728      -1011.3996      1760.7326     -910.99009      15.754401      15.754401      15.754401      4364.7788     -871.9038       1789.3229    
     98700   300.32052     -1232.0688     -1009.1644     -2075.3684     -1129.4564      15.840004      15.840004      15.840004      56.215245     -2589.5228     -3692.7977    
     98800   292.84219     -1223.2151     -1005.8613     -612.78603     -1041.6238      15.876243      15.876243      15.876243     -437.0032      -1360.4138     -40.941087    
     98900   325.02519     -1224.2585     -983.01776     -1171.9209     -1051.4146      15.876467      15.876467      15.876467     -3191.5896     -1349.1385      1024.9654    
     99000   307.76665     -1228.6265     -1000.1954      179.35663     -989.8073       15.836087      15.836087      15.836087     -477.89128      238.16407      777.79712    
     99100   293.99366     -1241.4414     -1023.2329      1156.4982     -956.72226      15.798774      15.798774      15.798774      2625.5988      462.29532      381.60053    
     99200   297.28789     -1250.5069     -1029.8534     -232.85388     -1043.2402      15.796894      15.796894      15.796894      1282.8654     -1459.7888     -521.63832    
     99300   298.07255     -1260.7824     -1039.5465      845.45717     -990.99438      15.791139      15.791139      15.791139      1852.8673      1191.4849     -507.98069    
     99400   282.06155     -1237.997      -1028.6448      204.70954     -1016.8837      15.793453      15.793453      15.793453     -834.32781      606.79733      841.65912    
     99500   331.02723     -1246.1534     -1000.4578     -841.80963     -1048.6737      15.777337      15.777337      15.777337     -2054.2087      1172.187      -1643.4072    
     99600   312.30636     -1247.6812     -1015.8807     -59.412467     -1019.2641      15.747167      15.747167      15.747167     -83.300035     -563.4189       468.48153    
     99700   281.72873     -1241.4433     -1032.3381      396.37704     -1009.8763      15.721223      15.721223      15.721223      1843.4369     -751.25949      96.953762    
     99800   292.73518     -1242.6594     -1025.385      -1226.8363     -1094.599       15.697983      15.697983      15.697983     -775.45912     -2583.068      -321.98174    
     99900   320.14923     -1238.7624     -1001.1407      2347.7729     -869.27911      15.674564      15.674564      15.674564      1301.4202      4666.2543      1075.6444    
    100000   283.92629     -1222.8729     -1012.1366      328.43074     -993.50204      15.727758      15.727758      15.727758     -356.71447      517.84481      824.16187    
    100100   324.64312     -1238.0869     -997.12978     -108.35173     -1003.3906      15.82366       15.82366       15.82366      -1226.7005      10.667201      890.9781     
    100200   307.4061      -1231.14       -1002.9766     -1785.5341     -1108.7068      15.953342      15.953342      15.953342     -1897.9183     -1436.7822     -2021.9019    
    100300   293.61311     -1231.6489     -1013.7229     -3131.788      -1202.8737      16.058808      16.058808      16.058808     -3026.9161     -2753.8335     -3614.6142    
    100400   288.27504     -1222.7883     -1008.8243     -2365.4941     -1152.28        16.080764      16.080764      16.080764     -1834.7977     -2376.8978     -2884.7869    
    100500   297.36798     -1225.8039     -1005.091      -886.27825     -1058.1141      16.008105      16.008105      16.008105      245.15419      7.8895468     -2911.8785    
    100600   299.80376     -1226.8651     -1004.3442     -488.24843     -1032.8508      15.878489      15.878489      15.878489      1809.1836     -2029.0971     -1244.8318    
    100700   309.91284     -1247.0942     -1017.0702      341.66442     -997.72888      15.715813      15.715813      15.715813      2766.1383     -605.21248     -1135.9326    
    100800   295.59487     -1258.7457     -1039.3488      1672.2136     -947.11172      15.580423      15.580423      15.580423      506.75191      2825.3229      1684.566     
    100900   298.79038     -1282.3723     -1060.6036      824.11373     -1015.9493      15.488168      15.488168      15.488168      2009.6742      1422.258      -959.59096    
    101000   282.84932     -1274.0653     -1064.1284      799.42977     -1021.2675      15.433646      15.433646      15.433646      2274.4394     -54.68506       178.53492    
Loop time of 974.657 on 1 procs for 100000 steps with 375 atoms

Performance: 8.865 ns/day, 2.707 hours/ns, 102.600 timesteps/s
67.4% CPU use with 1 MPI tasks x 1 OpenMP threads

MPI task timing breakdown:
Section |  min time  |  avg time  |  max time  |%varavg| %total
---------------------------------------------------------------
Pair    | 429.6      | 429.6      | 429.6      |   0.0 | 44.08
Bond    | 0.33855    | 0.33855    | 0.33855    |   0.0 |  0.03
Kspace  | 101.49     | 101.49     | 101.49     |   0.0 | 10.41
Neigh   | 9.1897     | 9.1897     | 9.1897     |   0.0 |  0.94
Comm    | 6.7418     | 6.7418     | 6.7418     |   0.0 |  0.69
Output  | 14.403     | 14.403     | 14.403     |   0.0 |  1.48
Modify  | 409.88     | 409.88     | 409.88     |   0.0 | 42.05
Other   |            | 3.006      |            |       |  0.31

Nlocal:            375 ave         375 max         375 min
Histogram: 1 0 0 0 0 0 0 0 0 0
Nghost:           5771 ave        5771 max        5771 min
Histogram: 1 0 0 0 0 0 0 0 0 0
Neighs:         136953 ave      136953 max      136953 min
Histogram: 1 0 0 0 0 0 0 0 0 0

Total # of neighbors = 136953
Ave neighs/atom = 365.208
Ave special neighs/atom = 2
Neighbor list builds = 1268
Dangerous builds = 0

write_data  water2.data
System init for write_data ...
PPPM initialization ...
  using 12-bit tables for long-range coulomb (src/kspace.cpp:342)
  G vector (1/distance) = 0.31307982
  grid = 15 15 15
  stencil order = 5
  estimated absolute RMS force accuracy = 0.0017648835
  estimated relative force accuracy = 5.3148943e-06
  using double precision FFTW3
  3d grid and FFT values/proc = 10648 3375
Generated 0 of 1 mixed pair_coeff terms from geometric mixing rule
WARNING: Not all mixed pair coeffs generated from mixing. Use write_data with 'pair ij' option to store all pair coeffs. (src/write_data.cpp:309)
write_restart     water2.restart
System init for write_restart ...
PPPM initialization ...
  using 12-bit tables for long-range coulomb (src/kspace.cpp:342)
  G vector (1/distance) = 0.31307982
  grid = 15 15 15
  stencil order = 5
  estimated absolute RMS force accuracy = 0.0017648835
  estimated relative force accuracy = 5.3148943e-06
  using double precision FFTW3
  3d grid and FFT values/proc = 10648 3375
Generated 0 of 1 mixed pair_coeff terms from geometric mixing rule
Total wall time: 0:16:14
