LAMMPS (4 May 2022)
OMP_NUM_THREADS environment is not set. Defaulting to 1 thread. (src/comm.cpp:98)
  using 1 OpenMP thread(s) per MPI task
# spc water - 1=O, 2=H

read_restart    water1.restart
Reading restart file ...
  restart file = 4 May 2022, LAMMPS = 4 May 2022
  restoring atom style full from restart
  orthogonal box = (-0.25608788 -0.25608788 -0.25608788) to (9.5560879 9.5560879 9.5560879)
  1 by 1 by 1 MPI processor grid
  restoring pair style lj/cut/coul/long from restart
  restoring bond style harmonic from restart
  restoring angle style harmonic from restart
  81 atoms
  54 bonds
  27 angles
Finding 1-2 1-3 1-4 neighbors ...
  special bond factors lj:    0        0        0       
  special bond factors coul:  0        0        0       
     2 = max # of 1-2 neighbors
     1 = max # of 1-3 neighbors
     1 = max # of 1-4 neighbors
     2 = max # of special neighbors
  special bonds CPU = 0.000 seconds
  read_restart CPU = 0.003 seconds

kspace_style   pppm 1.0e-5

group oxygen type 1
27 atoms in group oxygen

#======================
neighbor        2.0 bin
neigh_modify    every 1 delay 1 check yes
#======================

#reset_timestep 0
timestep 1.0

fix            1 all shake 0.0001 20 0 b 1 a 1
       0 = # of size 2 clusters
       0 = # of size 3 clusters
       0 = # of size 4 clusters
      27 = # of frozen angles
  find clusters CPU = 0.000 seconds
fix            2 all npt temp 300.0 300.0 100.0 iso 1.0 1.0 1000.0
Resetting global fix info from restart file:
  fix style: npt, fix ID: 2
fix            3 all momentum 1 linear 1 1 1
fix	       xwall1 all wall/lj93 xlo EDGE 1.0 1.0 2.5 pbc yes
fix	       xwall2 all wall/lj93 xhi EDGE 1.0 1.0 2.5 pbc yes
fix	       ywall1 all wall/lj93 ylo EDGE 1.0 1.0 2.5 pbc yes
fix	       ywall2 all wall/lj93 yhi EDGE 1.0 1.0 2.5 pbc yes
fix	       zwall1 all wall/lj93 zlo EDGE 1.0 1.0 2.5 pbc yes
fix	       zwall2 all wall/lj93 zhi EDGE 1.0 1.0 2.5 pbc yes

compute	MSD oxygen msd com no
fix 4 oxygen ave/time 1 1 500 c_MSD[4] file ../spc3.msd

thermo 100
thermo_style custom step temp pe etotal press enthalpy lx ly lz pxx pyy pzz
thermo_modify flush yes


dump         2 all custom 1000 md2.lammpstrj id type x y z
#dump_modify  1 unwrap yes
run 100000
PPPM initialization ...
  using 12-bit tables for long-range coulomb (src/kspace.cpp:342)
  G vector (1/distance) = 0.30891265
  grid = 9 9 9
  stencil order = 5
  estimated absolute RMS force accuracy = 0.0020970828
  estimated relative force accuracy = 6.3153026e-06
  using double precision FFTW3
  3d grid and FFT values/proc = 4096 729
Generated 0 of 1 mixed pair_coeff terms from geometric mixing rule
All restart file global fix info was re-assigned
Neighbor list info ...
  update every 1 steps, delay 1 steps, check yes
  max neighbors/atom: 2000, page size: 100000
  master list distance cutoff = 12
  ghost atom cutoff = 12
  binsize = 6, bins = 2 2 2
  1 neighbor lists, perpetual/occasional/extra = 1 0 0
  (1) pair lj/cut/coul/long, perpetual
      attributes: half, newton on
      pair build: half/bin/newton
      stencil: half/bin/3d
      bin: standard
Per MPI rank memory allocation (min/avg/max) = 9.784 | 9.784 | 9.784 Mbytes
   Step          Temp          PotEng         TotEng         Press         Enthalpy          Lx             Ly             Lz            Pxx            Pyy            Pzz      
      1000   303.50635     -228.73414     -180.78531     -13129.374     -361.67586      9.8121758      9.8121758      9.8121758     -15085.336     -13505.637     -10797.149    
      1100   334.32513     -238.82934     -186.01167     -3544.9077     -232.09729      9.6241311      9.6241311      9.6241311     -5837.1008     -1189.4952     -3608.127     
      1200   303.98627     -245.26808     -197.24343     -1545.5755     -216.05309      9.4146664      9.4146664      9.4146664      3936.2934     -8490.9873     -82.032734    
      1300   318.10629     -254.0768      -203.82144      777.46546     -194.84026      9.2524937      9.2524937      9.2524937      1476.6134     -1593.4479      2449.2309    
      1400   305.38659     -268.14427     -219.8984       4787.6024     -166.04258      9.17092        9.17092        9.17092        3449.4868      9035.506       1877.8144    
      1500   254.56835     -271.65305     -231.4356       4506.1944     -180.36987      9.1935076      9.1935076      9.1935076      5680.6885      6488.5037      1349.3911    
      1600   301.01473     -274.07527     -226.52008     -1970.2252     -249.55754      9.2899689      9.2899689      9.2899689      372.17657     -6824.0085      541.15642    
      1700   364.75433     -278.78324     -221.15828     -4306.7511     -272.33555      9.3400775      9.3400775      9.3400775     -3271.2465     -3350.4877     -6298.519     
      1800   308.89305     -268.19333     -219.3935      -849.39012     -229.42622      9.3213454      9.3213454      9.3213454     -2490.4238      3175.4572     -3233.2038    
      1900   332.42626     -265.42544     -212.90776      4954.6882     -154.47517      9.3165329      9.3165329      9.3165329      6238.8479      7462.6169      1162.5998    
      2000   316.86713     -263.60774     -213.54815     -730.58728     -222.38686      9.3960869      9.3960869      9.3960869     -2305.5173     -243.45929      357.21472    
      2100   285.91321     -255.87351     -210.7041      -2663.6564     -243.73212      9.4734787      9.4734787      9.4734787     -1828.6184     -4636.9645     -1525.3865    
      2200   232.0852      -253.32418     -216.65868      76.456403     -215.69757      9.5168863      9.5168863      9.5168863     -673.76044     -765.47074      1668.6004    
      2300   316.62343     -260.59121     -210.57011     -1862.2933     -234.1976       9.5462143      9.5462143      9.5462143     -2803.2086     -2266.0747     -517.59665    
      2400   318.13416     -255.26989     -205.01012     -2200.9704     -232.8336       9.5347023      9.5347023      9.5347023     -1106.2533     -4616.9468     -879.71111    
      2500   352.34854     -248.50018     -192.83512     -1698.3659     -214.09315      9.5032447      9.5032447      9.5032447     -1574.0246     -3269.6062     -251.46688    
      2600   381.34323     -246.20935     -185.96363      1990.9496     -161.32502      9.4673116      9.4673116      9.4673116      5469.7256      1841.2109     -1338.0876    
      2700   316.96904     -251.11943     -201.04374     -2572.365      -232.81781      9.4613874      9.4613874      9.4613874     -1705.1253     -2129.1779     -3882.7917    
      2800   307.86618     -254.38504     -205.74744     -824.00808     -215.81589      9.4272508      9.4272508      9.4272508      538.20748     -2569.6048     -440.62694    
      2900   279.25039     -259.74948     -215.63268      53.341751     -214.99141      9.3763309      9.3763309      9.3763309      265.26281      4398.744      -4503.9816    
      3000   328.31564     -272.74082     -220.87255     -2418.402      -249.48076      9.3260002      9.3260002      9.3260002     -1318.2297     -5560.3599     -376.61637    
      3100   281.18101     -266.56248     -222.14068      781.33364     -213.10334      9.2564155      9.2564155      9.2564155     -1301.9363      4211.2337     -565.29639    
      3200   357.04068     -264.1778      -207.77146      4703.991      -153.85908      9.2281657      9.2281657      9.2281657      6182.9688      10199.061     -2270.0571    
      3300   315.87768     -258.08499     -208.18171      2471.0557     -179.36372      9.2818614      9.2818614      9.2818614      967.08144      5669.1917      776.89387    
      3400   296.63219     -249.62311     -202.76029      3520.7932     -160.58261      9.3653088      9.3653088      9.3653088      3489.2039      2628.2162      4444.9595    
      3500   349.65044     -253.56518     -198.32638      1017.0596     -185.73801      9.4678007      9.4678007      9.4678007      193.6465      -1450.2743      4307.8066    
      3600   375.23804     -252.33714     -193.05593      280.06779     -189.48329      9.5634957      9.5634957      9.5634957     -1483.8277      2799.1587     -475.12762    
      3700   309.84734     -245.38059     -196.42999     -2347.6057     -226.92585      9.6215848      9.6215848      9.6215848     -751.89201     -2417.7669     -3873.1581    
      3800   295.98469     -244.95785     -198.19732     -1638.6192     -219.53519      9.6293959      9.6293959      9.6293959     -1904.4714     -1137.9349     -1873.4514    
      3900   301.35384     -249.3243      -201.71554      446.5639      -195.96478      9.5937517      9.5937517      9.5937517      835.22594      2473.0164     -1968.5506    
      4000   316.42513     -260.38718     -210.39741     -37.09185      -210.86766      9.5438365      9.5438365      9.5438365     -628.05146     -511.99503      1028.7709    
      4100   279.10601     -265.65151     -221.55753      1544.3893     -202.29128      9.4926659      9.4926659      9.4926659      1328.9436     -79.523492      3383.7477    
      4200   253.03958     -266.04563     -226.06969      2417.311      -196.08473      9.4746901      9.4746901      9.4746901      5096.3059     -2850.8098      5006.437     
      4300   299.54196     -268.12287     -220.80035     -947.64904     -232.63488      9.4960399      9.4960399      9.4960399     -4050.2988     -2874.6895      4082.0412    
      4400   286.13769     -260.44874     -215.24387     -2335.616      -244.53817      9.5097384      9.5097384      9.5097384     -2136.3803     -3078.764      -1791.7036    
      4500   267.21265     -258.31434     -216.0993      -696.1938      -224.75603      9.4823497      9.4823497      9.4823497     -3081.78        502.71085      490.48777    
      4600   315.96627     -256.54394     -206.62667      1846.2917     -183.91065      9.448988       9.448988       9.448988       3937.4463     -3804.2045      5405.6334    
      4700   334.0278      -257.7397      -204.96901      3857.6821     -157.10081      9.4757793      9.4757793      9.4757793      6786.6375      2610.3403      2176.0685    
      4800   282.17723     -250.81107     -206.23188      1138.8569     -191.53097      9.6013673      9.6013673      9.6013673     -2948.049       3867.3273      2497.2924    
      4900   294.08352     -248.90311     -202.44294      1037.8093     -188.42588      9.7473785      9.7473785      9.7473785     -1769.1664      1620.5582      3262.036     
      5000   316.82743     -248.25829     -198.20497     -424.27574     -204.15314      9.8693035      9.8693035      9.8693035      547.51981      3335.9286     -5156.2757    
      5100   288.96855     -252.47745     -206.82535     -101.39377     -208.28848      9.9647241      9.9647241      9.9647241     -1321.0322     -55.29581       1072.1467    
      5200   301.40286     -251.67007     -204.05356     -3943.0578     -262.41522      10.049386      10.049386      10.049386     -2591.2355     -8252.0429     -985.89498    
      5300   225.43963     -232.63599     -197.02038     -3410.4595     -247.14796      10.026037      10.026037      10.026037     -3726.9822     -3249.6186     -3254.7777    
      5400   277.95753     -232.28449     -188.37195     -3017.2274     -231.10466      9.9028189      9.9028189      9.9028189     -2693.1515     -4412.0102     -1946.5206    
      5500   372.02525     -247.3288      -188.55516      571.92527     -180.79525      9.762188       9.762188       9.762188      -124.70164      2408.3951     -567.91769    
      5600   252.90003     -240.27176     -200.31788     -923.44116     -212.37454      9.637861       9.637861       9.637861      -279.48495     -3459.2715      968.43299    
      5700   321.86947     -251.47514     -200.62526      2228.1032     -172.4471       9.5360188      9.5360188      9.5360188      6341.0632      1425.6505     -1082.4041    
      5800   434.4651      -263.6682      -195.03013     -1280.6559     -211.09186      9.509579       9.509579       9.509579      -2528.483      -3070.8823      1757.3976    
      5900   303.82275     -256.36283     -208.36402      764.08725     -198.82558      9.4948073      9.4948073      9.4948073      4772.3462     -3503.6896      1023.6052    
      6000   290.71755     -251.50389     -205.57548      2314.6531     -176.70688      9.4919329      9.4919329      9.4919329      1324.9576      1437.1468      4181.8549    
      6100   303.91129     -259.48854     -211.47574     -939.07652     -223.26961      9.5139276      9.5139276      9.5139276      4124.5554     -4192.0287     -2749.7563    
      6200   277.80588     -263.11269     -219.22411     -1410.5557     -236.94697      9.5153014      9.5153014      9.5153014      453.23412     -3827.2867     -857.61458    
      6300   289.11836     -268.24894     -222.57317     -3133.4493     -261.48212      9.4780053      9.4780053      9.4780053      769.88383     -4975.3295     -5194.9024    
      6400   311.27319     -266.17801     -217.00216      733.78727     -208.14412      9.3892421      9.3892421      9.3892421     -2366.3716      4275.2442      292.48927    
      6500   303.45081     -263.20524     -215.26519      3329.9235     -175.80294      9.3316236      9.3316236      9.3316236      2492.8457      1599.0924      5897.8323    
      6600   335.227       -268.68527     -215.72513      990.26744     -203.9248       9.3487861      9.3487861      9.3487861      2169.1229      1766.3065     -964.62711    
      6700   252.24784     -264.08319     -224.23234      290.27336     -220.73382      9.3842625      9.3842625      9.3842625      6.2811034      2186.7438     -1322.2048    
      6800   295.6734      -265.6526      -218.94125     -1062.6977     -231.93994      9.4305723      9.4305723      9.4305723      947.537       -2811.3992     -1324.2309    
      6900   360.41985     -256.74813     -199.80795     -1123.8226     -213.76668      9.4788889      9.4788889      9.4788889     -1591.1232     -604.67304     -1175.6716    
      7000   287.58295     -251.47698     -206.04378      2719.5473     -171.55115      9.5451903      9.5451903      9.5451903      1618.1729      2793.3763      3747.0928    
      7100   346.64178     -259.2356      -204.47212     -1439.5864     -223.31014      9.6451109      9.6451109      9.6451109     -4163.0438     -3173.692       3017.9766    
      7200   297.02993     -260.02353     -213.09787     -2095.8898     -241.10971      9.713277       9.713277       9.713277      -4116.268      -593.55504     -1577.8462    
      7300   275.90474     -258.92975     -215.34151     -2173.6713     -244.7028       9.7476918      9.7476918      9.7476918     -4977.2372     -316.60451     -1227.1721    
      7400   288.78638     -260.50594     -214.88262     -3074.5762     -255.9133       9.7084337      9.7084337      9.7084337     -1701.1933     -4846.8904     -2675.6451    
      7500   296.62814     -258.61489     -211.75271     -781.17036     -221.72427      9.5656353      9.5656353      9.5656353     -811.34954     -43.43187      -1488.7297    
      7600   389.32384     -262.43487     -200.92835      625.47659     -193.29014      9.4254372      9.4254372      9.4254372     -3600.8102      6975.2027     -1497.9627    
      7700   363.04953     -270.95962     -213.604        931.2127      -202.5619       9.3334497      9.3334497      9.3334497      340.51815     -1042.187       3495.3069    
      7800   310.36348     -276.3657      -227.33357      4320.7753     -177.03389      9.2763232      9.2763232      9.2763232      1140.463       7480.6848      4341.178     
      7900   261.63627     -277.43751     -236.10345      2238.5351     -209.99484      9.2821369      9.2821369      9.2821369     -1599.0188      2194.7794      6119.8446    
      8000   278.32417     -277.85889     -233.88842      1270.4416     -218.94421      9.308523       9.308523       9.308523       3284.4547     -821.42252      1348.2925    
      8100   274.06655     -266.48739     -223.18955     -1602.1247     -242.20711      9.3367161      9.3367161      9.3367161     -5123.668       2670.5077     -2353.2138    
      8200   315.33008     -265.86323     -216.04646     -1605.3311     -235.24448      9.3599159      9.3599159      9.3599159     -181.94453      1319.3368     -5953.3856    
      8300   264.91718     -262.14974     -220.29735     -1104.1313     -233.52646      9.3657946      9.3657946      9.3657946     -5364.7637      212.72646      1839.6434    
      8400   332.34675     -267.42908     -214.92397      1775.5112     -193.70387      9.3579927      9.3579927      9.3579927     -305.46585      2248.2405      3383.7591    
      8500   306.31433     -272.29872     -223.90629      480.7761      -218.1339       9.372284       9.372284       9.372284       1582.7861     -437.17751      296.71972    
      8600   271.06201     -274.47055     -231.64738     -1992.8524     -255.70851      9.3897717      9.3897717      9.3897717     -1401.3259     -1010.1508     -3567.0803    
      8700   300.29662     -277.48014     -230.0384       861.35944     -219.71686      9.3661556      9.3661556      9.3661556      64.165597      601.40868      1918.504     
      8800   327.94075     -275.10756     -223.29851      4256.8068     -172.16704      9.3736667      9.3736667      9.3736667     -470.48995      9977.6694      3263.241     
      8900   279.56834     -273.49481     -229.32778     -14.474281     -229.5057       9.4460375      9.4460375      9.4460375      2341.4564     -3752.8251      1367.9459    
      9000   229.72669     -275.01631     -238.72341     -2268.0767     -267.05314      9.4966309      9.4966309      9.4966309     -3685.0794     -1693.8602     -1425.2905    
      9100   325.24901     -286.02806     -234.64426     -458.25864     -240.35594      9.4898431      9.4898431      9.4898431      1552.7248      31.357307     -2958.858     
      9200   333.60671     -277.93129     -225.22712      1608.5517     -205.15548      9.4934486      9.4934486      9.4934486      1914.5161      1043.7656      1867.3735    
      9300   316.78548     -269.85002     -219.80332     -599.47004     -227.41504      9.5487486      9.5487486      9.5487486      1181.9376      240.24125     -3220.5889    
      9400   267.81064     -262.24766     -219.93815     -2162.1795     -247.65092      9.5786456      9.5786456      9.5786456     -683.49479     -4372.5206     -1430.5232    
      9500   364.58955     -273.07731     -215.47839     -1768.2013     -237.82904      9.5344185      9.5344185      9.5344185     -2798.9081     -3428.9659      923.27003    
      9600   322.29592     -269.73559     -218.81833      51.44529      -218.17917      9.4797512      9.4797512      9.4797512      2671.9541      212.65889     -2730.2771    
      9700   354.65547     -277.84977     -221.82026     -627.75325     -229.52447      9.4410662      9.4410662      9.4410662     -2307.8611     -740.69017      1165.2915    
      9800   297.39074     -277.95533     -230.97267     -321.56941     -234.89068      9.4182861      9.4182861      9.4182861     -3195.2704     -735.51         2966.0722    
      9900   307.12397     -285.20047     -236.68013      77.978692     -235.73423      9.4043829      9.4043829      9.4043829      233.17381      3240.3549     -3239.5926    
     10000   285.12742     -284.25645     -239.21118      1405.9559     -222.07141      9.4200341      9.4200341      9.4200341     -1657.2113      3072.6674      2802.4116    
     10100   277.73526     -277.45066     -233.57323      313.15938     -229.6719       9.4883482      9.4883482      9.4883482      1214.8272      2404.2511     -2679.6002    
     10200   296.88401     -263.75881     -216.8562      -2104.339      -243.77626      9.5725601      9.5725601      9.5725601     -4412.9404      350.97474     -2251.0513    
     10300   285.87092     -261.32897     -216.16625     -3103.4912     -256.35778      9.6117555      9.6117555      9.6117555     -105.68257     -4439.6981     -4765.0929    
     10400   303.62129     -267.39842     -219.43143     -854.93497     -230.40238      9.582491       9.582491       9.582491      -50.825916      665.42811     -3179.4071    
     10500   294.50159     -274.2907      -227.76448     -1217.0711     -242.97427      9.4982545      9.4982545      9.4982545     -431.0577      -682.03858     -2538.1171    
     10600   216.76647     -265.79354     -231.54814      3122.4368     -193.99396      9.3776976      9.3776976      9.3776976      4820.78        3363.549       1182.9814    
     10700   299.01974     -281.79713     -234.55711      4188.8781     -185.29314      9.3079052      9.3079052      9.3079052     -248.07163      8487.8652      4326.8406    
     10800   284.96962     -273.74736     -228.72703     -1253.0283     -243.4494       9.3049429      9.3049429      9.3049429     -4066.4207      2227.5718     -1920.2361    
     10900   280.99047     -265.91481     -221.52311      1554.21       -203.24412      9.3079833      9.3079833      9.3079833      1354.8754      102.03566      3205.719     
     11000   301.68155     -271.62441     -223.96387      951.56207     -212.67723      9.3343453      9.3343453      9.3343453     -549.47997      920.03032      2484.1359    
     11100   277.3484      -269.08381     -225.2675      -2975.0358     -260.88471      9.3633364      9.3633364      9.3633364     -6306.7879      1431.5609     -4049.8805    
     11200   327.30064     -261.93666     -210.22875      1494.5488     -192.39667      9.3527358      9.3527358      9.3527358      2265.517       2626.3104     -408.18101    
     11300   351.03667     -260.68097     -205.22316     -1033.0347     -217.5822       9.3611945      9.3611945      9.3611945     -3648.2902     -2766.1021      3315.2881    
     11400   264.52436     -250.11719     -208.32685     -32.525175     -208.71672      9.3671332      9.3671332      9.3671332     -1559.7651     -486.08657      1948.2761    
     11500   246.04542     -255.56452     -216.69354      3261.7199     -177.62146      9.3651483      9.3651483      9.3651483     -725.95972      6088.7371      4422.3823    
     11600   310.34887     -259.16462     -210.1348       376.25772     -205.59766      9.3858507      9.3858507      9.3858507      268.3901       2876.0981     -2015.715     
     11700   363.44705     -258.82363     -201.40519     -3451.7483     -243.53928      9.424092       9.424092       9.424092      -4665.4672     -7660.5652      1970.7874    
     11800   342.53643     -254.81708     -200.70217      460.20502     -195.06056      9.4375326      9.4375326      9.4375326     -2344.5904      1238.5467      2486.6588    
     11900   301.88073     -259.41611     -211.7241      -694.44293     -220.33095      9.4720473      9.4720473      9.4720473     -5206.8768     -2892.437       6015.985     
     12000   335.81586     -269.50739     -216.45422     -1195.443      -231.49645      9.5199752      9.5199752      9.5199752     -2464.958       1429.2286     -2550.5998    
     12100   310.98301     -270.81405     -221.68404     -2466.4348     -253.14982      9.5638112      9.5638112      9.5638112     -1627.2014     -2741.1516     -3030.9513    
     12200   251.50601     -265.91667     -226.18301     -1542.0179     -245.63731      9.5283298      9.5283298      9.5283298     -130.30897     -3369.5966     -1126.1481    
     12300   293.7487      -263.90813     -217.50085      2651.3637     -185.20566      9.417397       9.417397       9.417397       4181.4348      498.27469      3274.3817    
     12400   324.29286     -269.53044     -218.2977       1610.7127     -199.2018       9.3328749      9.3328749      9.3328749     -1663.5075      2277.5565      4218.0891    
     12500   321.00595     -270.53853     -219.82507     -196.56605     -222.13763      9.3089924      9.3089924      9.3089924     -2470.9851     -2360.8207      4242.1076    
     12600   282.65298     -270.41088     -225.75653      4629.7677     -171.11102      9.3190818      9.3190818      9.3190818      11661.443      1308.4166      919.444      
     12700   277.73536     -275.29313     -231.41569     -3231.2303     -270.32391      9.3813616      9.3813616      9.3813616     -3144.5124     -8295.9409      1746.7624    
     12800   299.54298     -276.6312      -229.30852     -1972.782      -253.21604      9.4014137      9.4014137      9.4014137     -737.70739     -3777.5045     -1403.1342    
     12900   281.50901     -268.97257     -224.49895      749.83895     -215.44083      9.3914246      9.3914246      9.3914246     -3818.8253      791.74897      5276.5932    
     13000   309.78716     -268.95424     -220.01316     -1132.0468     -233.659        9.3846915      9.3846915      9.3846915      1878.3118     -3241.3383     -2033.114     
     13100   296.18844     -269.54458     -222.75186      797.375       -213.31369      9.3278837      9.3278837      9.3278837     -443.40497      831.79487      2003.7351    
     13200   268.0593      -278.00405     -235.65525      1786.6023     -215.08717      9.2419446      9.2419446      9.2419446     -115.6669       1254.7783      4220.6957    
     13300   284.01758     -287.80005     -242.93012      1336.9585     -227.79598      9.1901243      9.1901243      9.1901243      4479.1575     -1366.668       898.38588    
     13400   258.9944      -272.16686     -231.25016      1999.048      -208.66145      9.1846823      9.1846823      9.1846823      194.08348      827.55681      4975.5037    
     13500   406.45994     -283.792       -219.57827      251.67438     -216.68001      9.2428861      9.2428861      9.2428861     -1068.3532     -3986.8125      5810.1888    
     13600   247.57175     -267.27849     -228.16638     -74.605602     -229.0561       9.3512202      9.3512202      9.3512202     -222.86285      63.015284     -63.969245    
     13700   278.74649     -266.22595     -222.18876     -495.30633     -228.29655      9.4560843      9.4560843      9.4560843     -3366.0327     -193.80961      2073.9233    
     13800   298.73899     -264.57282     -217.37716     -3378.9433     -260.04288      9.5310502      9.5310502      9.5310502     -8469.2866     -758.34474     -909.19853    
     13900   295.15106     -271.37714     -224.74831     -3172.848      -264.87127      9.5357731      9.5357731      9.5357731     -3521.4014     -4888.3907     -1108.7518    
     14000   274.53716     -274.29603     -230.92384     -2017.0946     -255.74447      9.449385       9.449385       9.449385      -3484.9514     -1864.0611     -702.27146    
     14100   305.48321     -280.14913     -231.88799     -1239.5768     -246.3683       9.2870149      9.2870149      9.2870149      64.490065     -2606.5347     -1176.6858    
     14200   276.38777     -269.09371     -225.42916      7088.2672     -146.49159      9.1402051      9.1402051      9.1402051      7651.5267      6539.0829      7074.1921    
     14300   331.48036     -270.15159     -217.78335      7284.4821     -136.81592      9.1343699      9.1343699      9.1343699      2435.6654      10076.245      9341.5361    
     14400   301.50442     -274.0846      -226.45205     -2716.9137     -257.81147      9.2499365      9.2499365      9.2499365     -7985.7877      278.70254     -443.65598    
     14500   296.22764     -279.24166     -232.44275     -3219.9024     -270.58573      9.3303661      9.3303661      9.3303661     -3877.3864     -6652.6018      870.28096    
     14600   314.80417     -277.04621     -227.31252      3178.2349     -188.98409      9.3861263      9.3861263      9.3861263      2322.6016      2973.4304      4238.6728    
     14700   313.07419     -270.208       -220.74762     -9.0221982     -220.85969      9.4791669      9.4791669      9.4791669      1580.9214      1156.5101     -2764.4981    
     14800   291.63219     -270.58337     -224.51046     -1733.4667     -246.58946      9.5586377      9.5586377      9.5586377     -1893.2741     -907.77204     -2399.354     
     14900   290.78512     -265.79208     -219.853       -1018.698      -232.92642      9.5827313      9.5827313      9.5827313      695.51232     -3990.8867      239.28044    
     15000   306.25752     -271.92902     -223.54556      1109.04       -209.3309       9.5786534      9.5786534      9.5786534      1226.572       205.45771      1895.0902    
     15100   300.7665      -263.01757     -215.5016       2108.0901     -188.24627      9.6064322      9.6064322      9.6064322      916.96856      2185.8687      3221.4331    
     15200   362.807       -266.19295     -208.87564      542.22891     -201.71368      9.6751499      9.6751499      9.6751499     -5077.2552      2873.6935      3830.2483    
     15300   255.9313      -263.80065     -223.36787     -1764.1607     -247.14691      9.7407731      9.7407731      9.7407731      289.38173     -455.72467     -5126.1393    
     15400   236.61865     -262.26935     -224.88764     -6829.2216     -316.89364      9.7391939      9.7391939      9.7391939     -8250.9116     -3406.7185     -8830.0346    
     15500   247.43601     -261.41087     -222.32021     -176.27695     -224.59158      9.5956057      9.5956057      9.5956057     -1201.4693     -2279.9998      2952.6383    
     15600   314.20381     -263.81176     -214.17292      1557.0906     -195.17786      9.4221565      9.4221565      9.4221565      1610.0755      978.94         2082.2563    
     15700   350.34555     -272.75131     -217.40269      5198.1184     -156.14602      9.3141621      9.3141621      9.3141621      5344.6895      8482.965       1766.7006    
     15800   315.77906     -272.00124     -222.11354      3338.6375     -182.57123      9.329799       9.329799       9.329799       2749.8648      2680.9299      4585.1178    
     15900   263.03404     -274.04195     -232.48706     -261.68332     -235.67341      9.4163066      9.4163066      9.4163066     -323.84008     -265.02662     -196.18326    
     16000   280.06245     -269.92659     -225.6815       1849.3302     -202.5962       9.4947098      9.4947098      9.4947098      1736.7842      4724.569      -913.36251    
     16100   305.79823     -265.80059     -217.48969     -1894.9007     -241.83615      9.5864503      9.5864503      9.5864503     -4614.7171      1627.8169     -2697.802     
     16200   336.53203     -263.43517     -210.26886     -3408.315      -254.81057      9.6408894      9.6408894      9.6408894     -1841.1562     -6869.2279     -1514.5608    
     16300   381.15608     -261.35222     -201.13606      133.61392     -199.39024      9.6403154      9.6403154      9.6403154      764.28301     -3209.2441      2845.8028    
     16400   381.69129     -261.6194      -201.31869      1038.6284     -187.67083      9.6584966      9.6584966      9.6584966     -1583.9573      3905.5736      794.26901    
     16500   287.18254     -259.11791     -213.74797     -4254.0685     -270.015        9.6796107      9.6796107      9.6796107     -3636.9695     -3876.405      -5248.8311    
     16600   306.03306     -266.91153     -218.56353     -2595.0817     -252.30895      9.6248945      9.6248945      9.6248945     -4731.0775     -3925.9132      871.74546    
     16700   321.00932     -264.89952     -214.18553      3110.578      -174.91729      9.530335       9.530335       9.530335       4032.7954     -564.88461      5863.8231    
     16800   311.90001     -266.55672     -217.28185      1689.5399     -196.43623      9.4578         9.4578         9.4578        -855.40964      573.80363      5350.2256    
     16900   284.04374     -272.91147     -228.03741     -3885.2876     -275.37006      9.417897       9.417897       9.417897      -4874.6964     -5030.2046     -1750.9619    
     17000   236.11059     -270.08369     -232.78225      683.00284     -224.66421      9.340806       9.340806       9.340806      -73.234445     -351.87818      2474.1211    
     17100   317.89141     -274.5271      -224.30568      4514.1211     -172.04477      9.2592534      9.2592534      9.2592534      3986.6925      4212.0535      5343.6173    
     17200   364.08367     -270.00193     -212.48293      8361.5654     -115.13009      9.2767327      9.2767327      9.2767327      4060.692       3759.6098      17264.394    
     17300   358.63242     -269.6618      -213.004       -4447.5676     -267.00121      9.4071404      9.4071404      9.4071404     -6351.9577     -2331.1374     -4659.6076    
     17400   234.64272     -257.41204     -220.34249     -1394.1593     -237.66114      9.4792778      9.4792778      9.4792778     -548.41852      251.10181     -3885.1612    
     17500   270.26448     -260.68797     -217.9908      -1855.6073     -241.05945      9.4817113      9.4817113      9.4817113      2979.9315     -5141.5032     -3405.2503    
     17600   337.53129     -263.66397     -210.33978      863.36051     -199.77793      9.4309903      9.4309903      9.4309903      3359.1072     -2437.6331      1668.6074    
     17700   332.41821     -264.33105     -211.81464     -36.447878     -212.25538      9.3946018      9.3946018      9.3946018     -1598.1856      3043.186      -1554.3439    
     17800   241.83645     -262.47448     -224.26845     -5150.9707     -285.59216      9.3459004      9.3459004      9.3459004     -5031.6005     -4726.5401     -5694.7715    
     17900   280.86181     -273.23694     -228.86557     -739.46439     -237.31832      9.2200842      9.2200842      9.2200842      48.674979     -3258.0267      990.95852    
     18000   310.73265     -273.68599     -224.59553      3385.6116     -187.38198      9.1004469      9.1004469      9.1004469      7340.3053      149.71663      2666.8128    
     18100   320.23263     -271.46997     -220.87868      4034.8169     -176.78342      9.0830295      9.0830295      9.0830295      4640.1976      919.14203      6545.1112    
     18200   225.7278      -266.05225     -230.39111      4177.7968     -183.90491      9.1376311      9.1376311      9.1376311      5211.9605      6416.8063      904.62351    
     18300   259.65155     -277.99174     -236.97122     -2832.5153     -269.22555      9.2083105      9.2083105      9.2083105     -1276.4514     -4442.053      -2779.0414    
     18400   255.82593     -280.29054     -239.87441     -1535.3483     -257.4699       9.2279699      9.2279699      9.2279699     -318.67615     -3213.665      -1073.7038    
     18500   245.24577     -278.7344      -239.98976     -994.8315      -251.37974      9.2249901      9.2249901      9.2249901      1433.3334      501.79774     -4919.6257    
     18600   313.81193     -275.13653     -225.5596       1219.7788     -211.6151       9.2203772      9.2203772      9.2203772     -2436.5487      4526.8261      1569.059     
     18700   286.71906     -266.06688     -220.77016      4052.6433     -173.90057      9.2560489      9.2560489      9.2560489      873.23311      6160.3063      5124.3905    
     18800   331.3534      -269.66404     -217.31586      2405.404      -188.51163      9.3640593      9.3640593      9.3640593      2739.0175      3107.8443      1369.3501    
     18900   301.37676     -267.76833     -220.15594     -3118.884      -259.27638      9.5099057      9.5099057      9.5099057     -4031.1678     -4873.5578     -451.92653    
     19000   272.91036     -269.55558     -226.4404      -3446.0547     -270.84032      9.5953618      9.5953618      9.5953618     -2773.3881     -1354.9379     -6209.8382    
     19100   263.09729     -267.0722      -225.50731     -2390.5191     -256.47467      9.612699       9.612699       9.612699      -2840.356      -1525.844      -2805.3572    
     19200   279.38909     -265.61427     -221.47556      524.18736     -214.7343       9.5894332      9.5894332      9.5894332      4689.4564     -1235.4779     -1881.4164    
     19300   287.35065     -265.22401     -219.82751     -2117.0639     -246.81299      9.5610754      9.5610754      9.5610754     -2925.7442     -2442.7932     -982.65432    
     19400   296.71768     -267.92997     -221.05364      3457.1399     -177.67958      9.5106985      9.5106985      9.5106985      7150.7056      1131.7094      2089.0048    
     19500   305.26563     -269.36449     -221.13773     -472.0481      -226.99973      9.478243       9.478243       9.478243      -3686.8924      2636.6676     -365.91945    
     19600   308.02876     -267.1195      -218.45622     -2499.0822     -249.17788      9.4463227      9.4463227      9.4463227     -6756.8899      3019.7959     -3760.1525    
     19700   320.9365      -259.08292     -208.38043      4173.8183     -158.14038      9.3802315      9.3802315      9.3802315      5571.1946      2644.8167      4305.4436    
     19800   347.02955     -262.64306     -207.81832     -275.32727     -211.10843      9.3575488      9.3575488      9.3575488     -7584.2854      3209.3499      3548.9537    
     19900   266.23557     -267.33392     -225.27324     -2008.5294     -249.32322      9.3638299      9.3638299      9.3638299     -2828.5843     -2120.2443     -1076.7597    
     20000   278.15685     -275.32375     -231.37971     -1149.3541     -245.07597      9.3488331      9.3488331      9.3488331     -4983.6208      992.74843      542.81007    
     20100   252.28896     -270.69907     -230.84172      2494.4696     -201.41859      9.3170463      9.3170463      9.3170463      1530.2952      5795.4812      157.63228    
     20200   324.57104     -266.38971     -215.11303      2408.7826     -186.66863      9.3205407      9.3205407      9.3205407      5608.5373      3125.0157     -1507.2051    
     20300   306.31659     -261.31015     -212.91735     -108.25045     -214.21833      9.3753652      9.3753652      9.3753652     -2476.9321      3043.5556     -891.37492    
     20400   291.46491     -263.10262     -217.05614     -768.74645     -226.51298      9.4484875      9.4484875      9.4484875     -3662.5644      670.55976      685.76525    
     20500   271.46119     -260.31717     -217.43093     -919.57275     -228.92507      9.4988603      9.4988603      9.4988603     -2807.8964      353.96369     -304.78557    
     20600   263.65379     -258.33806     -216.68526     -631.06458     -224.60183      9.5103341      9.5103341      9.5103341     -4791.1693     -2501.7988      5399.7744    
     20700   360.59161     -261.78233     -204.81501     -3254.49       -245.66226      9.511916       9.511916       9.511916      -3774.2482     -4322.9216     -1666.3002    
     20800   326.86554     -259.07039     -207.43122     -3166.6213     -246.4941       9.4572336      9.4572336      9.4572336     -4755.7787     -761.74429     -3982.3408    
     20900   262.06965     -262.53483     -221.1323       565.08162     -214.38479      9.3551781      9.3551781      9.3551781      406.51553     -2526.8071      3815.5365    
     21000   285.92632     -277.81591     -232.64444      1886.0348     -210.6879       9.2763994      9.2763994      9.2763994      3060.1672      3347.7378     -749.80062    
     21100   262.24767     -272.00586     -230.5752       1111.1597     -217.69831      9.2623142      9.2623142      9.2623142     -520.81854      2092.007       1762.2905    
     21200   308.89479     -273.87758     -225.07747      4196.0086     -175.61201      9.3152947      9.3152947      9.3152947      2706.2159      4795.2718      5086.5382    
     21300   254.44728     -263.41232     -223.21399      3389.072      -181.92299      9.4181643      9.4181643      9.4181643      556.77088      4926.4598      4683.9853    
     21400   322.77029     -265.29522     -214.30302     -4094.7914     -266.25075      9.5459601      9.5459601      9.5459601     -4977.6213     -6498.9113     -807.84151    
     21500   335.71192     -265.58917     -212.55242     -1781.5278     -235.62982      9.6125691      9.6125691      9.6125691     -4691.5305     -562.68649     -90.366352    
     21600   297.08465     -250.74571     -203.81141     -5226.0716     -272.28038      9.6489676      9.6489676      9.6489676     -8715.3037     -3017.2276     -3945.6836    
     21700   351.64093     -251.20784     -195.65458     -787.08004     -205.83478      9.6077256      9.6077256      9.6077256      4680.3644     -5515.4772     -1526.1273    
     21800   333.11686     -243.08895     -190.46217      473.17178     -184.48         9.5350133      9.5350133      9.5350133     -3298.8288      2860.9748      1857.3694    
     21900   336.26328     -258.32041     -205.19655     -651.59411     -213.24147      9.4599676      9.4599676      9.4599676     -356.97523      2130.8145     -3728.6217    
     22000   289.20355     -256.26448     -210.57525     -2287.7678     -238.13232      9.3824236      9.3824236      9.3824236      152.16738     -3988.1011     -3027.3697    
     22100   283.87305     -257.88254     -213.03544      2066.2621     -188.78992      9.3008661      9.3008661      9.3008661      1438.393       4167.9425      592.45088    
     22200   280.4267      -259.37818     -215.07555      4067.2625     -167.79489      9.2718946      9.2718946      9.2718946      2436.5652      1455.211       8310.0115    
     22300   303.01805     -269.79222     -221.92054      2893.2093     -187.96107      9.3018293      9.3018293      9.3018293      2900.0879      1995.5664      3783.9737    
     22400   253.90176     -272.03418     -231.92203      993.00848     -219.96427      9.3815306      9.3815306      9.3815306      603.80427      579.16801      1796.0531    
     22500   284.12886     -274.04114     -229.15363     -124.95499     -230.69915      9.4656082      9.4656082      9.4656082     -986.88439      330.15703      281.86239    
     22600   264.38359     -256.46861     -214.70051      180.88114     -212.40055      9.5532349      9.5532349      9.5532349     -835.93015     -1386.7877      2765.3613    
     22700   296.17104     -250.30853     -203.51856     -3290.1592     -246.22866      9.6193541      9.6193541      9.6193541     -3540.8304     -682.82577     -5646.8213    
     22800   303.80494     -257.19569     -209.1997      -4417.0637     -266.40241      9.6117476      9.6117476      9.6117476     -1524.3631     -6793.3135     -4933.5147    
     22900   315.90377     -256.43992     -206.53252     -2849.2111     -242.43836      9.524778       9.524778       9.524778      -3171.4453     -5073.9891     -302.19891    
     23000   312.44917     -265.04184     -215.68021      5631.3491     -147.29265      9.4079772      9.4079772      9.4079772      3529.0679      8268.46        5096.5192    
     23100   260.356       -262.57936     -221.44756      3249.6464     -182.44933      9.3708205      9.3708205      9.3708205      5858.9851      1697.8118      2192.1423    
     23200   274.51766     -267.11518     -223.74608     -492.74907     -229.69345      9.3887502      9.3887502      9.3887502     -127.65331      496.55421     -1847.1481    
     23300   287.70257     -264.05138     -218.59929     -1964.1266     -242.30756      9.3889744      9.3889744      9.3889744     -2189.0225     -2853.0911     -850.26627    
     23400   345.02628     -260.69178     -206.18352      3839.6564     -160.1838       9.3654572      9.3654572      9.3654572      3257.0806      5992.6252      2269.2634    
     23500   320.46956     -259.12284     -208.49412      7717.8325     -114.96736      9.4013065      9.4013065      9.4013065      6817.3281      8470.1301      7866.0392    
     23600   286.79134     -268.17733     -222.86919     -3009.4186     -260.5386       9.5033511      9.5033511      9.5033511     -5407.4033     -4471.3192      850.46666    
     23700   275.24991     -264.53583     -221.05105     -15.585599     -221.24876      9.5457632      9.5457632      9.5457632     -459.33289     -528.21792      940.79402    
     23800   259.45272     -265.03039     -224.04128      189.22468     -221.63859      9.5487832      9.5487832      9.5487832     -1015.3506     -2961.6173      4544.6419    
     23900   328.2026      -268.36962     -216.51921     -2711.1402     -250.6043       9.5172651      9.5172651      9.5172651     -4230.9087     -2343.3389     -1559.173     
     24000   288.57477     -253.66317     -208.07328      1853.9448     -185.28731      9.4456442      9.4456442      9.4456442      742.89803      1141.8452      3677.0912    
     24100   294.5773      -255.15902     -208.62083      2713.407      -175.47754      9.4261628      9.4261628      9.4261628      3532.7608      1589.0919      3018.3682    
     24200   345.52717     -266.50339     -211.91599      486.56764     -205.93065      9.4483677      9.4483677      9.4483677      558.8757       307.19221      593.63502    
     24300   312.11948     -265.1155      -215.80595     -2445.5739     -246.0931       9.4696494      9.4696494      9.4696494     -1651.2659     -2389.4367     -3296.0191    
     24400   269.68169     -261.20972     -218.60461      469.92904     -212.77681      9.4739767      9.4739767      9.4739767     -2791.4171      4429.8115     -228.60727    
     24500   272.18542     -258.16588     -215.16523      428.59182     -209.84581      9.4765055      9.4765055      9.4765055     -1610.2544      2633.0392      262.99067    
     24600   335.56083     -261.13814     -208.12525      1775.3153     -185.91868      9.5011617      9.5011617      9.5011617     -52.707448      428.77599      4949.8773    
     24700   316.81987     -266.07873     -216.0266       27.636498     -215.67264      9.5762479      9.5762479      9.5762479     -356.99615      1269.6021     -829.69642    
     24800   269.59345     -264.7339      -222.14273      160.31979     -220.03363      9.6622452      9.6622452      9.6622452      2863.2932      1415.8798     -3798.2136    
     24900   260.28599     -257.94659     -216.82584     -1135.0749     -232.05808      9.7264515      9.7264515      9.7264515     -1327.4785     -2599.209       521.46285    
     25000   306.56967     -265.05634     -216.62357     -3715.8093     -266.73351      9.7423756      9.7423756      9.7423756     -3237.3781     -3388.3068     -4521.7431    
     25100   286.942       -258.85106     -213.51912     -1663.0986     -235.61072      9.6934366      9.6934366      9.6934366     -3535.3751     -2468.6385      1014.7176    
     25200   389.40509     -266.85725     -205.33789     -336.69345     -209.71884      9.6268892      9.6268892      9.6268892      69.814706     -2343.6012      1263.7061    
     25300   302.16909     -266.96437     -219.22681     -1517.1238     -238.70555      9.5841737      9.5841737      9.5841737     -1397.4465     -2240.2613     -913.66346    
     25400   274.46195     -261.26572     -217.90542     -754.72862     -227.47459      9.5441205      9.5441205      9.5441205     -5092.8271     -518.80577      3347.447     
     25500   293.8099      -265.98192     -219.56497      905.11698     -208.36905      9.4658533      9.4658533      9.4658533      599.45737     -722.11454      2838.0081    
     25600   253.37446     -278.78755     -238.75871      2.0683411     -238.73372      9.3918626      9.3918626      9.3918626      1900.0766      534.81827     -2428.6899    
     25700   238.28271     -277.42482     -239.78022      3320.8042     -200.39782      9.3338538      9.3338538      9.3338538      4427.782       1424.1359      4110.4947    
     25800   298.70658     -273.48163     -226.29109      3658.413      -183.14218      9.3168062      9.3168062      9.3168062      8205.7771      764.32774      2005.1343    
     25900   314.13185     -272.87481     -223.24734      346.14288     -219.10553      9.3616594      9.3616594      9.3616594     -5409.8465      1635.3624      4812.9128    
     26000   314.24314     -269.64658     -220.00152     -1884.7903     -242.92772      9.4130647      9.4130647      9.4130647     -4295.3881     -1819.6305      460.64773    
     26100   360.722       -279.97559     -222.98767     -967.62031     -234.82663      9.4314297      9.4314297      9.4314297     -2790.8489     -4414.5309      4302.5188    
     26200   290.79255     -270.71176     -224.7715       1398.9155     -207.53588      9.4533679      9.4533679      9.4533679      4400.8562     -986.44184      782.33226    
     26300   286.2052      -272.64848     -227.43294      1964.5059     -202.72561      9.5184342      9.5184342      9.5184342      1420.256       2281.1479      2192.1137    
     26400   286.09244     -273.99491     -228.79718     -2763.0649     -264.58035      9.6117821      9.6117821      9.6117821     -1551.757      -6837.3526      99.914726    
     26500   303.37349     -266.56142     -218.63359     -3471.3411     -264.04998      9.6445026      9.6445026      9.6445026     -5241.9409     -763.53784     -4408.5445    
     26600   268.60039     -250.06408     -207.62981     -1619.2542     -228.54549      9.6034448      9.6034448      9.6034448     -643.2193      -621.74972     -3592.7937    
     26700   357.91357     -256.66166     -200.11743      533.111       -193.38258      9.5326031      9.5326031      9.5326031      5326.7504     -625.76688     -3101.6505    
     26800   291.99945     -264.22195     -218.09102     -336.62306     -222.25927      9.4691539      9.4691539      9.4691539     -1625.2291     -2494.876       3110.2359    
     26900   325.3855      -279.40641     -228.00106      1642.9333     -208.0236       9.4119895      9.4119895      9.4119895      1946.9054     -250.47875      3232.3734    
     27000   277.85928     -277.14082     -233.24379     -1201.945      -247.60807      9.3578134      9.3578134      9.3578134     -398.33173     -2325.2212     -882.28203    
     27100   262.24298     -276.82649     -235.39658      1228.1025     -220.95234      9.3081083      9.3081083      9.3081083      785.82979     -88.477646      2986.9555    
     27200   364.00184     -280.13898     -222.6329      -125.28992     -224.10189      9.2984039      9.2984039      9.2984039     -3374.3594      2860.8532      137.63652    
     27300   275.31957     -265.32488     -221.82908      1257.1029     -206.89612      9.3389873      9.3389873      9.3389873     -175.59027      1867.5056      2079.3935    
     27400   345.09112     -266.47386     -211.95536     -1417.9984     -229.26902      9.424951       9.424951       9.424951      -3329.7714     -4184.1265      3259.9028    
     27500   306.36733     -260.41973     -212.01892     -2297.0314     -240.67732      9.4929898      9.4929898      9.4929898     -2745.2217     -2838.6628     -1307.2096    
     27600   333.6169      -269.60125     -216.89548      929.42639     -205.20318      9.5192547      9.5192547      9.5192547     -2703.6238     -784.98982      6276.8928    
     27700   266.44291     -268.50619     -226.41276     -55.967149     -227.12733      9.5663451      9.5663451      9.5663451      2060.2494     -1738.7321     -489.41874    
     27800   288.5249      -268.10951     -222.5275      -514.46227     -229.22484      9.6284761      9.6284761      9.6284761     -2476.0228      1825.5477     -892.91178    
     27900   368.87066     -271.39135     -213.11608     -2706.1869     -248.63418      9.6546976      9.6546976      9.6546976     -4006.3137     -3540.0908     -572.15615    
     28000   358.80902     -263.93492     -207.24922     -8.79545       -207.36423      9.6428302      9.6428302      9.6428302     -619.51894     -107.15151      700.2841     
     28100   327.67326     -265.41915     -213.65237     -2726.2533     -248.98204      9.6138907      9.6138907      9.6138907     -3213.5468     -1340.7382     -3624.4748    
     28200   291.11396     -268.54884     -222.55781     -1352.6682     -239.79851      9.5608376      9.5608376      9.5608376     -4925.2509      1685.6144     -818.36816    
     28300   305.52764     -275.14748     -226.87933     -489.12669     -233.00193      9.5034114      9.5034114      9.5034114      1341.2951     -2705.6049     -103.07031    
     28400   281.8794      -269.03831     -224.50618      1903.8631     -201.05279      9.4528913      9.4528913      9.4528913     -325.44508      3010.0129      3027.0213    
     28500   323.2917      -278.94541     -227.87084     -945.8515      -239.37539      9.4129044      9.4129044      9.4129044     -2365.7172     -1853.418       1381.5807    
     28600   260.08519     -280.64578     -239.55676      1368.7689     -223.04218      9.3875828      9.3875828      9.3875828      2558.8636     -138.2002       1685.6433    
     28700   277.48855     -283.95662     -240.11817     -2690.5005     -272.62255      9.3917021      9.3917021      9.3917021     -3206.7462     -2658.485      -2206.2704    
     28800   306.26669     -272.30737     -223.92246      1343.2281     -207.76463      9.3781927      9.3781927      9.3781927     -980.95888      5883.9271     -873.28396    
     28900   341.2858      -273.73076     -219.81343      549.50112     -213.15452      9.4012631      9.4012631      9.4012631      3602.7422     -1448.5221     -505.71673    
     29000   291.70302     -270.27444     -224.19034     -865.4698      -234.84024      9.4494343      9.4494343      9.4494343     -4127.2503     -744.34151      2275.1825    
     29100   310.63411     -276.57636     -227.50147     -1139.4408     -241.7438       9.4988512      9.4988512      9.4988512     -2327.6192     -3277.6369      2186.9337    
     29200   258.83226     -278.444       -237.55293     -868.00352     -248.54346      9.5398259      9.5398259      9.5398259     -1202.1075      418.03971     -1819.9427    
     29300   320.15223     -287.34722     -236.76863     -1088.8541     -250.70545      9.5742785      9.5742785      9.5742785     -3034.232      -870.2623       637.93186    
     29400   327.90772     -270.37669     -218.57287      353.23199     -214.00168      9.6094334      9.6094334      9.6094334     -1704.163       3148.252      -384.39303    
     29500   317.70881     -267.07887     -216.8863      -3156.2957     -258.11593      9.6394431      9.6394431      9.6394431     -2689.1157     -5461.4737     -1318.2975    
     29600   294.5377      -265.9029      -219.37097     -4094.5452     -272.0304       9.5895497      9.5895497      9.5895497     -2905.2931     -7344.3392     -2034.0031    
     29700   336.20276     -270.40093     -217.28663     -557.64759     -224.16937      9.458926       9.458926       9.458926      -3391.094       1044.034       674.11724    
     29800   320.53432     -270.24549     -219.60654      4828.5072     -162.29634      9.3364345      9.3364345      9.3364345      4631.3905      7282.6784      2571.4525    
     29900   313.68657     -277.93047     -228.37335      4121.3283     -180.29031      9.2830976      9.2830976      9.2830976      3769.6936      5666.814       2927.4772    
     30000   285.67088     -278.84637     -233.71524     -985.66392     -245.33434      9.3151358      9.3151358      9.3151358     -2286.9799      4731.3906     -5401.4025    
     30100   309.18215     -280.54013     -231.69462     -429.45839     -236.84004      9.3657202      9.3657202      9.3657202     -415.48832      3420.6577     -4293.5446    
     30200   274.31246     -266.68169     -223.34501      3615.2346     -179.54412      9.4006272      9.4006272      9.4006272      5339.9829      5465.5952      40.125619    
     30300   353.92176     -273.23375     -217.32015      1032.1531     -204.53627      9.4699468      9.4699468      9.4699468      1585.5118      1740.2329     -229.28544    
     30400   266.68293     -271.02438     -228.89303     -2227.3795     -257.28263      9.5608474      9.5608474      9.5608474     -1791.7429     -3797.7718     -1092.624     
     30500   252.34604     -271.0533      -231.18693     -3301.8605     -273.61035      9.5864324      9.5864324      9.5864324     -6692.2176     -444.89384     -2768.4702    
     30600   311.21862     -271.35274     -222.18551      212.15337     -219.51115      9.5257211      9.5257211      9.5257211     -2001.0455      4240.002      -1602.4964    
     30700   308.26674     -267.02756     -218.32668      6330.6633     -139.98749      9.4671224      9.4671224      9.4671224      5885.3324      7130.6194      5976.0382    
     30800   313.73955     -263.88802     -214.32253     -31.869048     -214.72236      9.5106682      9.5106682      9.5106682      1306.8185     -2794.8085      1392.3828    
     30900   340.89342     -265.86889     -212.01355     -3339.3508     -254.76089      9.5746685      9.5746685      9.5746685     -5947.466      -1677.2374     -2393.3489    
     31000   283.99381     -262.12817     -217.26199     -1879.066      -241.36437      9.5810698      9.5810698      9.5810698     -6689.3085      4053.6476     -3001.5371    
     31100   288.35143     -269.40672     -223.85212     -2760.6938     -258.70739      9.5307002      9.5307002      9.5307002     -4401.2805     -2616.6943     -1264.1065    
     31200   288.18591     -271.88949     -226.36104      967.05946     -214.54451      9.427292       9.427292       9.427292      -873.66185      2608.0082      1166.832     
     31300   270.01163     -276.84477     -234.18754      1103.7426     -221.11187      9.3305405      9.3305405      9.3305405      611.61701      358.26317      2341.3476    
     31400   247.69767     -281.38858     -242.25658     -1280.058      -257.09129      9.262421       9.262421       9.262421      -1600.3242      400.26519     -2640.1151    
     31500   268.86245     -275.85072     -233.37504      3636.6624     -192.32805      9.1812292      9.1812292      9.1812292      2647.6322      5788.2067      2474.1484    
     31600   284.5305      -268.28506     -223.3341       6546.7513     -150.03569      9.1565304      9.1565304      9.1565304      8564.3335      7306.2737      3769.6465    
     31700   309.16685     -272.33609     -223.49301      1246.0392     -209.22913      9.2245114      9.2245114      9.2245114     -124.973        4713.473      -850.38242    
     31800   270.57757     -270.90674     -228.1601      -1548.7281     -246.41862      9.3154711      9.3154711      9.3154711     -3193.5952     -1072.1936     -380.39562    
     31900   302.26043     -272.86705     -225.11506     -788.46536     -234.64602      9.3934708      9.3934708      9.3934708     -138.4939       961.48348     -3188.3857    
     32000   353.30361     -267.39645     -211.58051     -3198.9936     -250.88725      9.4447962      9.4447962      9.4447962     -1657.4654     -4241.2964     -3698.219     
     32100   276.59049     -252.22663     -208.53005      530.89118     -201.96553      9.464706       9.464706       9.464706      -465.47873     -1738.5182      3796.6705    
     32200   356.02035     -261.40267     -205.15753     -1027.5674     -217.90183      9.4742146      9.4742146      9.4742146     -2854.8452      3492.9257     -3720.7828    
     32300   279.14758     -265.24994     -221.14939     -667.94342     -229.41602      9.4675498      9.4675498      9.4675498     -872.03148     -546.2203      -585.57848    
     32400   270.91643     -272.52187     -229.72169     -206.71266     -232.26031      9.4431696      9.4431696      9.4431696     -2612.1004      1241.4314      750.53101    
     32500   234.70079     -268.43821     -231.35949      1708.4413     -210.6301       9.4052465      9.4052465      9.4052465     -1316.3797     -2723.337       9165.0406    
     32600   310.87773     -271.369       -222.25563      640.60289     -214.50735      9.3953602      9.3953602      9.3953602      2608.5499     -1733.9608      1047.2197    
     32700   314.87326     -265.03808     -215.29347      983.60595     -203.32689      9.4136419      9.4136419      9.4136419      3927.8327      711.38061     -1688.3955    
     32800   320.89619     -264.03723     -213.34111     -2419.4242     -243.05105      9.4428835      9.4428835      9.4428835     -2622.4154     -2959.1067     -1676.7505    
     32900   305.65597     -261.4898      -213.20138     -1866.5169     -236.15995      9.4481272      9.4481272      9.4481272     -675.10955     -4808.0129     -116.42806    
     33000   325.61318     -272.16106     -220.71974     -1119.4662     -234.38988      9.425305       9.425305       9.425305       1259.9376     -2968.6686     -1649.6676    
     33100   273.50187     -276.90557     -233.69694     -1896.373      -256.75479      9.4118081      9.4118081      9.4118081     -2928.0467     -3313.7668      552.69439    
     33200   270.48134     -279.95903     -237.2276      -1077.3766     -250.32938      9.4122975      9.4122975      9.4122975     -2107.1045     -2109.1669      984.14159    
     33300   315.56289     -275.95163     -226.09808      222.62868     -223.38923      9.4140287      9.4140287      9.4140287     -596.68873     -911.64537      2176.2202    
     33400   337.56787     -272.98005     -219.65009     -942.7896      -231.26371      9.4527701      9.4527701      9.4527701     -1177.5416     -3851.5841      2200.7568    
     33500   328.42341     -273.1201      -221.23481      259.09424     -218.00682      9.4885437      9.4885437      9.4885437     -2160.6771      1418.4266      1519.5332    
     33600   238.15453     -268.28434     -230.65999     -2530.72       -262.43337      9.5129337      9.5129337      9.5129337     -2403.8835     -2094.4399     -3093.8365    
     33700   257.61593     -279.97725     -239.27833     -1509.2674     -258.03983      9.4814589      9.4814589      9.4814589     -7286.3092      1710.8297      1047.6772    
     33800   313.85484     -280.06917     -230.48546      545.44933     -223.80961      9.4324702      9.4324702      9.4324702      245.01754     -1412.6301      2803.9606    
     33900   324.80701     -274.79038     -223.47642      1448.0445     -205.79784      9.4246062      9.4246062      9.4246062      5096.6341     -411.40198     -341.09866    
     34000   270.8629      -264.26943     -221.47771     -1972.978      -245.63472      9.4336914      9.4336914      9.4336914     -545.1551      -5357.2004     -16.578603    
     34100   342.78241     -268.19126     -214.03749     -1699.8258     -234.65177      9.4036392      9.4036392      9.4036392     -921.84991     -1806.1993     -2371.4282    
     34200   335.51228     -260.17143     -207.16621      761.18667     -198.03241      9.3704733      9.3704733      9.3704733      2679.9349      1000.337      -1396.7118    
     34300   301.54451     -262.26371     -214.62483      1395.4205     -197.78833      9.3876501      9.3876501      9.3876501      3363.5756     -1940.499       2763.185     
     34400   293.18207     -260.41796     -214.1002      -487.73033     -220.09415      9.4453758      9.4453758      9.4453758     -2342.1213     -2284.0733      3163.0037    
     34500   292.07367     -255.33378     -209.19112      2393.0331     -179.27276      9.4995799      9.4995799      9.4995799      4171.1911      858.59251      2149.3157    
     34600   294.90026     -253.13233     -206.54312      618.78821     -198.66275      9.5582044      9.5582044      9.5582044      1543.928      -4951.5078      5263.9445    
     34700   329.5115      -252.26307     -200.20588     -2263.4471     -229.43186      9.6022787      9.6022787      9.6022787     -2037.9006     -151.0843      -4601.3563    
     34800   263.65204     -243.50033     -201.84781     -245.94486     -205.01789      9.5966318      9.5966318      9.5966318      1583.9035     -4438.8847      2117.1466    
     34900   277.12517     -256.18735     -212.40631      967.42075     -200.0007       9.5802233      9.5802233      9.5802233     -3111.1901      2190.2865      3823.1659    
     35000   296.37342     -263.58184     -216.7599      -431.75752     -222.28934      9.5760958      9.5760958      9.5760958     -3080.7377     -3721.293       5506.7581    
     35100   339.09506     -272.19322     -218.62198     -1637.5832     -239.59108      9.5756184      9.5756184      9.5756184      300.55788      418.9412      -5632.2486    
     35200   275.40751     -264.62418     -221.11449      2203.6186     -192.94285      9.5704705      9.5704705      9.5704705     -385.05744      1412.2313      5583.6819    
     35300   291.35866     -263.45394     -217.42424      2453.3845     -185.98552      9.5779911      9.5779911      9.5779911     -302.50197      1145.9563      6516.6992    
     35400   339.5153      -258.67074     -205.03312     -1840.2817     -229.06625      9.638661       9.638661       9.638661      -201.88373     -3647.9553     -1671.0062    
     35500   289.61401     -262.68049     -216.92642     -1320.999      -234.42816      9.6850293      9.6850293      9.6850293      1217.0029     -5098.5955     -81.404197    
     35600   256.83939     -257.26342     -216.68718     -1941.5655     -242.30239      9.6714139      9.6714139      9.6714139     -4393.1592     -1064.879      -366.65818    
     35700   266.7361      -262.9582      -220.81845      2390.6026     -190.01298      9.5958074      9.5958074      9.5958074      2141.3297      1683.0655      3347.4126    
     35800   260.57818     -276.05114     -234.88424      608.69565     -227.18792      9.5353293      9.5353293      9.5353293     -3458.8091      3258.5317      2026.3643    
     35900   279.59472     -279.08225     -234.91106     -1459.1169     -253.01305      9.4751654      9.4751654      9.4751654     -1046.0815     -2176.2635     -1155.0058    
     36000   323.3229      -281.73207     -230.65256      36.779752     -230.20575      9.4091196      9.4091196      9.4091196     -1736.9208      3305.2757     -1458.0156    
     36100   304.83953     -269.46512     -221.30568      674.06935     -213.24232      9.3607753      9.3607753      9.3607753      5535.3737     -2154.5145     -1358.6512    
     36200   337.56892     -274.13864     -220.80852      525.79129     -214.57578      9.3324696      9.3324696      9.3324696      405.25452     -764.09164      1936.211     
     36300   339.05164     -267.04112     -213.47675     -496.56177     -219.36399      9.3329936      9.3329936      9.3329936     -534.61706     -1052.8264      97.758196    
     36400   357.20957     -254.9937      -198.56069      755.3034      -189.51209      9.3654365      9.3654365      9.3654365     -3743.3381      1808.4935      4200.7548    
     36500   291.7271      -252.63688     -206.54898      619.88134     -198.98467      9.423126       9.423126       9.423126       88.976111     -1453.6201      3224.288     
     36600   331.91537     -262.25071     -209.81374      1875.9206     -186.5975       9.4674684      9.4674684      9.4674684     -4047.2532      7355.6658      2319.3491    
     36700   281.18118     -258.91078     -214.48895     -1884.2404     -238.07139      9.502958       9.502958       9.502958      -4702.3245      1970.9761     -2921.3729    
     36800   308.31623     -260.18361     -211.47491     -5400.4261     -278.99007      9.4994642      9.4994642      9.4994642     -5512.0528     -8381.9916     -2307.2338    
     36900   347.8353      -274.94508     -219.99304     -2064.6694     -244.9306       9.3909422      9.3909422      9.3909422     -7497.5457      2699.9102     -1396.3726    
     37000   262.10806     -275.36051     -233.95191      724.10008     -225.62515      9.2384801      9.2384801      9.2384801     -1357.5994     -1060.185       4590.0847    
     37100   321.37062     -284.40918     -233.63811      5218.4911     -175.505        9.1411515      9.1411515      9.1411515      4980.6752      7577.675       3097.1231    
     37200   262.78624     -278.91344     -237.3977       3532.3513     -197.79768      9.1604871      9.1604871      9.1604871      4594.3459      563.34741      5439.3605    
     37300   335.54556     -275.71442     -222.70394      2308.8892     -196.08482      9.2463774      9.2463774      9.2463774      3677.9179      2325.6926      923.05703    
     37400   301.87115     -266.88288     -219.19239     -3483.0341     -260.63364      9.3440053      9.3440053      9.3440053     -2950.1425     -6559.6398     -939.32004    
     37500   289.14628     -259.56121     -213.88103      1532.1714     -195.38412      9.3894184      9.3894184      9.3894184     -1630.3833      1590.8029      4636.0947    
     37600   369.00445     -268.15371     -209.85731      3502.6344     -166.75869      9.4492545      9.4492545      9.4492545      6475.2482      1165.5199      2867.1351    
     37700   304.77726     -264.21908     -216.06947     -2945.6222     -253.50022      9.5512124      9.5512124      9.5512124     -3306.5423     -4552.854      -977.47026    
     37800   242.36164     -263.74862     -225.45961     -4363.1366     -281.78384      9.601524       9.601524       9.601524      -3880.7344     -7038.5437     -2170.1318    
     37900   278.18456     -268.48295     -224.53453     -3320.7283     -267.01666      9.5726536      9.5726536      9.5726536     -3426.4995     -5465.7835     -1069.9019    
     38000   313.35555     -265.80836     -216.30354      2660.7553     -183.02767      9.5005667      9.5005667      9.5005667      2484.5052      3439.0089      2058.7519    
     38100   321.87938     -264.52693     -213.67549      1230.6582     -198.45041      9.4663388      9.4663388      9.4663388      3227.3932      161.71307      302.86826    
     38200   325.46821     -267.52666     -216.10823     -3606.5955     -260.36984      9.4409987      9.4409987      9.4409987     -3193.3534     -7147.9733     -478.45982    
     38300   311.77636     -267.7417      -218.48635     -1158.0718     -232.30478      9.3529592      9.3529592      9.3529592     -4273.3758      232.76099      566.39925    
     38400   281.4815      -275.12184     -230.65257      1533.957      -212.93949      9.2512769      9.2512769      9.2512769      2243.5991      1595.2792      762.9927     
     38500   316.51798     -276.66129     -226.65685      2708.4502     -196.0422       9.1856707      9.1856707      9.1856707      3547.4087      4134.4794      443.46246    
     38600   343.01127     -272.01        -217.82007      3678.5542     -176.15118      9.1922034      9.1922034      9.1922034      1672.9244      6600.1974      2762.5409    
     38700   304.27116     -268.32967     -220.26002      1742.6213     -199.91918      9.2846029      9.2846029      9.2846029     -1538.8496      2860.0182      3906.6952    
     38800   326.27516     -272.28027     -220.73437     -856.84654     -231.21225      9.4297068      9.4297068      9.4297068     -74.791248     -5426.141       2930.3926    
     38900   253.85396     -267.82094     -227.71635     -3684.8379     -274.31196      9.5356486      9.5356486      9.5356486     -3334.8043     -3931.5205     -3788.1889    
     39000   265.60505     -264.55939     -222.59832     -1533.292      -242.13204      9.5593438      9.5593438      9.5593438     -994.0648      -2257.3415     -1348.4695    
     39100   249.33782     -255.03686     -215.64574     -2058.0131     -241.85128      9.5577646      9.5577646      9.5577646     -2747.6059     -2473.7299     -952.70356    
     39200   287.57132     -254.54083     -209.10947     -1072.4096     -222.66901      9.5353397      9.5353397      9.5353397     -2117.2924     -3199.8803      2099.944     
     39300   306.03791     -255.60949     -207.26073      3154.1392     -167.91998      9.4920922      9.4920922      9.4920922     -360.57759      4177.1598      5645.8355    
     39400   312.6731      -265.64959     -216.25258      397.33785     -211.33231      9.4692948      9.4692948      9.4692948      105.13805      2275.4997     -1188.6241    
     39500   268.69419     -266.32739     -223.8783      -807.23547     -233.86326      9.4657875      9.4657875      9.4657875      3743.9727     -3547.2889     -2618.3902    
     39600   271.92045     -265.88616     -222.92737     -999.37902     -235.19881      9.4427072      9.4427072      9.4427072     -2816.1365     -3777.7881      3595.7876    
     39700   278.91592     -262.18093     -218.11697      1997.4941     -193.67167      9.4321635      9.4321635      9.4321635      77.246825      2304.9672      3610.2682    
     39800   276.37773     -266.07574     -222.41278      870.36379     -211.62532      9.4721255      9.4721255      9.4721255      2441.0289     -230.00949      400.07199    
     39900   244.24993     -251.67839     -213.09107     -873.38498     -224.10879      9.5280355      9.5280355      9.5280355     -4113.2158      2807.2183     -1314.1574    
     40000   314.43199     -255.55904     -205.88415     -410.60748     -211.11491      9.5591799      9.5591799      9.5591799     -212.79727      551.80898     -1570.8341    
     40100   273.97326     -244.79978     -201.51668      473.61633     -195.48374      9.5589179      9.5589179      9.5589179      2690.1825     -1314.2521      44.918627    
     40200   292.18314     -252.06821     -205.90826     -2347.9019     -235.62151      9.5381637      9.5381637      9.5381637     -3721.6316     -3671.1832      349.10916    
     40300   294.03682     -257.25686     -210.80406      834.23299     -200.39912      9.4920235      9.4920235      9.4920235      7538.0179     -5736.5376      701.21865    
     40400   268.4949      -262.17171     -219.7541       529.14254     -213.26826      9.437117       9.437117       9.437117       2855.5562     -1751.7441      483.61544    
     40500   243.73734     -258.71363     -220.20729      2425.3398     -190.79773      9.4032942      9.4032942      9.4032942      2687.9255      2753.8403      1834.2537    
     40600   312.62778     -270.52935     -221.1395       293.87232     -217.57717      9.40228        9.40228        9.40228        1532.1534     -1329.2162      678.6798     
     40700   312.82551     -264.22774     -214.80665      560.03852     -207.97467      9.4221715      9.4221715      9.4221715     -1155.7395      3388.0538     -552.1987     
     40800   285.45368     -262.11322     -217.01641      508.38305     -210.76625      9.4465829      9.4465829      9.4465829      1433.1249     -3114.1744      3206.1987    
     40900   334.25073     -263.18036     -210.37445      1186.749      -195.67686      9.4697182      9.4697182      9.4697182      4095.6717      1824.8405     -2360.2652    
     41000   339.72643     -264.35394     -210.68296      1116.4608     -196.60907      9.5257312      9.5257312      9.5257312      2726.2946      727.09971     -104.01197    
     41100   257.19485     -259.30104     -218.66864      732.15796     -209.18779      9.611449       9.611449       9.611449      -315.82393      4738.5161     -2226.2183    
     41200   280.80048     -263.64584     -219.28416     -4260.8217     -276.0942       9.7055158      9.7055158      9.7055158     -5960.691      -1996.0444     -4825.7298    
     41300   281.91516     -259.73445     -215.19666     -2100.2149     -243.36638      9.7248063      9.7248063      9.7248063     -6632.09       -704.35849      1035.8039    
     41400   266.36271     -252.75603     -210.67526     -759.13657     -220.79226      9.7040247      9.7040247      9.7040247     -183.2188      -1787.912      -306.27893    
     41500   302.83084     -249.71339     -201.87129     -1500.2785     -221.63894      9.6672389      9.6672389      9.6672389     -2344.1096     -463.18147     -1693.5444    
     41600   338.44478     -250.60884     -197.14034      306.95554     -193.15631      9.6188581      9.6188581      9.6188581      3366.3928     -106.86218     -2338.664     
     41700   285.33305     -244.05479     -198.97704      653.21171     -190.61519      9.5746786      9.5746786      9.5746786     -530.51977      2420.2084      69.946473    
     41800   311.32681     -264.56423     -215.37991      49.900147     -214.74549      9.5528733      9.5528733      9.5528733      102.18505      245.27261     -197.75722    
     41900   268.38392     -260.60803     -218.20795      2696.9052     -183.85194      9.5591746      9.5591746      9.5591746      6213.2208     -706.6626       2584.1576    
     42000   306.16573     -261.83281     -213.46385      157.79452     -211.43373      9.5907145      9.5907145      9.5907145     -651.28888      4141.2811     -3016.6087    
     42100   265.87266     -253.81875     -211.8154      -1086.6941     -225.94922      9.6255469      9.6255469      9.6255469      1599.2814     -3600.6358     -1258.7278    
     42200   339.09187     -264.86848     -211.29775     -2772.8223     -247.38143      9.6272952      9.6272952      9.6272952     -4736.3557     -61.347821     -3520.7634    
     42300   318.02619     -259.05333     -208.81062     -438.77836     -214.4414       9.582576       9.582576       9.582576       4445.4922     -4679.2309     -1082.5964    
     42400   320.76775     -254.87947     -204.20364      1890.2815     -180.33563      9.5309896      9.5309896      9.5309896      1755.3435      2479.4672      1436.0337    
     42500   305.56641     -258.32398     -210.0497      -964.54929     -222.10808      9.4994014      9.4994014      9.4994014     -2101.2305      899.15112     -1691.5685    
     42600   243.11897     -257.5602      -219.15155      842.80054     -208.73105      9.4644621      9.4644621      9.4644621     -1351.9085      4654.4807     -774.17058    
     42700   335.35332     -264.99534     -212.01524      7165.4822     -123.78848      9.4513316      9.4513316      9.4513316      7243.0587      9854.9764      4398.4116    
     42800   303.04264     -256.05153     -208.17596      328.35102     -203.99793      9.5554812      9.5554812      9.5554812      2103.07        203.47438     -1321.4913    
     42900   306.50174     -252.40249     -203.98045     -888.21244     -215.82242      9.7053334      9.7053334      9.7053334      5939.1773     -3094.4706     -5509.344     
     43000   323.06232     -248.77843     -197.7401      -1653.3559     -220.71664      9.8404312      9.8404312      9.8404312      406.0983      -2812.199      -2553.967     
     43100   276.43494     -246.94125     -203.26924     -2308.4678     -236.14281      9.9208533      9.9208533      9.9208533     -2374.0344     -3909.5931     -641.77594    
     43200   298.37565     -252.25019     -205.11193     -3286.8609     -251.60361      9.8985755      9.8985755      9.8985755     -2778.5267     -966.58124     -6115.4748    
     43300   286.50299     -249.6484      -204.38581     -2018.2126     -232.10797      9.8023012      9.8023012      9.8023012     -3271.2106     -2728.4819     -54.945249    
     43400   348.41568     -254.69996     -199.65623      308.98733     -195.584        9.6680437      9.6680437      9.6680437      1724.3586      2028.4576     -2825.8543    
     43500   353.82031     -259.33104     -203.43347      2264.8194     -174.63841      9.5529209      9.5529209      9.5529209      3691.7173      1244.6743      1858.0667    
     43600   330.62846     -268.17168     -215.93803      432.00155     -210.54202      9.4966477      9.4966477      9.4966477      1545.9976     -1365.2487      1115.2558    
     43700   274.56709     -269.77932     -226.4024       1809.8712     -203.9646       9.4729578      9.4729578      9.4729578      8949.006      -1534.6945     -1984.6978    
     43800   297.07196     -273.63922     -226.70692     -682.33771     -235.20093      9.4859144      9.4859144      9.4859144      2540.2005     -2517.7165     -2069.4971    
     43900   287.92563     -259.1275      -213.64016      354.23145     -209.2103       9.5004074      9.5004074      9.5004074      1909.3429     -2183.1288      1336.4802    
     44000   374.39673     -259.8438      -200.6955      -1716.9914     -222.2929       9.5188787      9.5188787      9.5188787     -1910.9042     -1334.538      -1905.5322    
     44100   280.74763     -256.47623     -212.1229      -496.16365     -218.40413      9.539261       9.539261       9.539261      -569.19431      218.00553     -1137.3022    
[...]
     91200   295.1555      -261.08441     -214.45488      3715.7676     -168.67562      9.4532565      9.4532565      9.4532565      2225.5228      689.86621      8231.9139    
     91300   286.70166     -254.51723     -209.22326     -2826.1794     -245.77783      9.6077573      9.6077573      9.6077573     -3239.0294     -2138.4604     -3101.0485    
     91400   366.91604     -256.99245     -199.02598     -2636.7338     -234.4812       9.7329847      9.7329847      9.7329847     -4405.5281     -1616.0714     -1888.6018    
     91500   255.44217     -245.77448     -205.41898     -796.59611     -216.41678      9.8189254      9.8189254      9.8189254     -2907.445      -1594.7492      2112.4059    
     91600   279.84871     -256.37956     -212.16824     -700.89394     -221.96207      9.8584404      9.8584404      9.8584404     -3116.9064     -1023.1192      2037.3438    
     91700   257.13865     -255.84852     -215.22501     -1625.1676     -237.99185      9.8667983      9.8667983      9.8667983     -2066.0902     -3219.6403      410.22763    
     91800   289.74814     -255.58422     -209.80896     -2929.1653     -250.60883      9.847961       9.847961       9.847961      -4704.2697     -1786.9755     -2296.2506    
     91900   294.90191     -251.99112     -205.40165      944.29008     -192.40158      9.8096786      9.8096786      9.8096786     -1887.3173      4396.3944      323.79318    
     92000   281.04362     -243.68961     -199.28952     -1655.5838     -221.80636      9.7699762      9.7699762      9.7699762     -2607.3952     -1848.1259     -511.23026    
     92100   303.29752     -249.49957     -201.58374      1298.4785     -184.41714      9.6781241      9.6781241      9.6781241     -889.68935      3966.3154      818.80936    
     92200   349.84755     -258.11806     -202.84812      1576.8038     -182.59204      9.5859221      9.5859221      9.5859221      154.26552      4888.0173     -311.87129    
     92300   276.18174     -262.40869     -218.77669      3281.7757     -177.38727      9.5272635      9.5272635      9.5272635      2189.572       3877.1741      3778.5811    
     92400   281.41341     -263.72002     -219.26151      1239.0226     -203.50862      9.5528956      9.5528956      9.5528956     -3488.753       4327.2573      2878.5635    
     92500   252.61767     -261.17633     -221.26705     -1733.2026     -243.62714      9.5995185      9.5995185      9.5995185     -4978.5297      568.41915     -789.49715    
     92600   340.44945     -260.96119     -207.17599      656.65575     -198.69871      9.60169        9.60169        9.60169        1223.8268      464.87336      281.26713    
     92700   278.58887     -255.39247     -211.38018      396.24047     -206.24728      9.6126375      9.6126375      9.6126375      1146.0325     -223.78714      266.47602    
     92800   321.85045     -259.68014     -208.83326      1503.168      -189.2692       9.6277579      9.6277579      9.6277579     -20.689245      4226.9795      303.21393    
     92900   355.58957     -259.35785     -203.18077     -2647.277      -238.00014      9.6615888      9.6615888      9.6615888     -4274.6411      308.27388     -3975.4638    
     93000   278.01864     -253.48289     -209.56069      105.9528      -208.16981      9.6553269      9.6553269      9.6553269     -629.976       -1513.61        2461.4444    
     93100   310.48223     -255.8455      -206.7946       3173.2256     -165.12887      9.6560775      9.6560775      9.6560775      3640.7872      464.01151      5414.8782    
     93200   302.15616     -256.36319     -208.62768     -231.01909     -211.71713      9.71522        9.71522        9.71522        711.66605      407.02482     -1811.7481    
     93300   269.69532     -253.83674     -211.22949     -2160.1596     -240.56559      9.7651801      9.7651801      9.7651801     -1714.8536     -5404.4376      638.81245    
     93400   332.76901     -265.95227     -213.38045     -1779.0906     -237.55253      9.7666739      9.7666739      9.7666739     -156.19668     -2727.1136     -2453.9615    
     93500   272.43356     -262.12625     -219.0864      -1615.694      -240.93008      9.7505767      9.7505767      9.7505767     -243.7921      -1303.3363     -3299.9536    
     93600   295.71935     -262.2785      -215.55989     -804.36103     -226.30026      9.7102585      9.7102585      9.7102585      2430.9087     -4044.8848     -799.10691    
     93700   281.65758     -253.32111     -208.82402      1684.7969     -186.62659      9.6670299      9.6670299      9.6670299     -2001.1604      5861.4447      1194.1063    
     93800   339.73897     -257.84134     -204.16838     -783.83768     -214.49961      9.6682985      9.6682985      9.6682985      1135.2243     -3360.8482     -125.88912    
     93900   271.12807     -256.9517      -214.11809     -142.03336     -215.99355      9.6741727      9.6741727      9.6741727      116.4379      -3950.6289      3408.0909    
     94000   270.56734     -265.37544     -222.63041      843.82401     -211.42039      9.693775       9.693775       9.693775       3152.7611     -2203.031       1581.7418    
     94100   278.27044     -268.86267     -224.90069     -909.69481     -237.01937      9.7027436      9.7027436      9.7027436     -3225.4254     -626.63241      1122.9734    
     94200   316.36232     -261.62173     -211.64189     -59.212956     -212.43639      9.7260196      9.7260196      9.7260196      1261.5962     -3407.897       1968.662     
     94300   313.43886     -257.17536     -207.65737     -377.10815     -212.77342      9.7618265      9.7618265      9.7618265     -1558.826       1336.7047     -909.20315    
     94400   287.75635     -251.2893      -205.82871     -1408.2048     -225.03554      9.77923        9.77923        9.77923        327.71642     -3554.3119     -998.01904    
     94500   270.42901     -253.90724     -211.18407     -264.25269     -214.79193      9.782539       9.782539       9.782539       1159.4501     -3562.7239      1610.5158    
     94600   302.65942     -252.28873     -204.47371      1420.254      -185.18387      9.7655241      9.7655241      9.7655241     -657.927       -2809.5218      7728.2108    
     94700   286.99944     -255.14703     -209.80602      404.65997     -204.29186      9.7762215      9.7762215      9.7762215      1721.4677     -4899.0444      4391.5566    
     94800   311.68769     -262.42934     -213.18801     -2853.2907     -252.63459      9.8234154      9.8234154      9.8234154     -451.55799     -4321.8604     -3786.4535    
     94900   250.73438     -259.32098     -219.70923     -55.068763     -220.4751       9.8429316      9.8429316      9.8429316     -1722.3351      269.48109      1287.6477    
     95000   327.31001     -261.96065     -210.25125     -359.72676     -215.22275      9.8222919      9.8222919      9.8222919     -1219.0349     -676.23656      816.09121    
     95100   355.14803     -258.871       -202.76367      1079.7084     -187.98076      9.7917248      9.7917248      9.7917248      1151.653      -55.088065      2142.5601    
     95200   283.96643     -249.63978     -204.77793     -2463.9133     -238.39301      9.7801229      9.7801229      9.7801229     -4552.8384     -1091.8908     -1747.0107    
     95300   315.73327     -258.50467     -208.6242      -485.77341     -215.17042      9.7400317      9.7400317      9.7400317      2659.3433     -1245.1591     -2871.5045    
     95400   273.18746     -261.12644     -217.96749     -438.94527     -223.79531      9.6918512      9.6918512      9.6918512     -1346.9071     -1469.1063      1499.1776    
     95500   284.0458      -268.39689     -223.5225      -189.35345     -225.99931      9.6437802      9.6437802      9.6437802      1631.9027      2199.9528     -4399.9159    
     95600   235.05696     -264.40876     -227.27377      2311.1539     -197.48065      9.5970347      9.5970347      9.5970347      5024.6457      1423.8782      484.93794    
     95700   299.1722      -275.27403     -228.00993     -333.0021      -232.27966      9.5798623      9.5798623      9.5798623     -5067.1903      1471.5805      2596.6035    
     95800   325.30762     -269.27736     -217.88431      3613.2705     -171.71445      9.5688712      9.5688712      9.5688712      10133.761      1297.5795     -591.52874    
     95900   313.77158     -260.87081     -211.30026      4003.7701     -159.54178      9.6060642      9.6060642      9.6060642      10284.732      3606.4939     -1879.9158    
     96000   278.53201     -258.82552     -214.82221     -1333.0099     -232.67046      9.7191605      9.7191605      9.7191605     -4130.9607      4071.3101     -3939.379     
     96100   265.04753     -256.24766     -214.37468     -3428.5598     -261.58419      9.8102627      9.8102627      9.8102627     -57.846235     -4541.8495     -5685.9836    
     96200   335.29803     -261.12376     -208.1524      -260.4261      -211.75099      9.8217976      9.8217976      9.8217976      961.11477     -2183.6552      441.2621     
     96300   243.93258     -260.41091     -221.87373      827.52433     -210.42073      9.8269991      9.8269991      9.8269991      530.88604     -1225.8111      3177.4981    
     96400   268.5739      -260.37198     -217.94189     -1453.512      -238.17918      9.8465914      9.8465914      9.8465914     -3664.9656     -2534.1917      1838.6212    
     96500   279.20221     -256.65413     -212.54495     -253.61424     -216.04479      9.8174745      9.8174745      9.8174745      761.83277     -838.01563     -684.65985    
     96600   301.36878     -255.83126     -208.22013      4395.4713     -147.95887      9.7960793      9.7960793      9.7960793      7154.7332      4758.8181      1272.8625    
     96700   334.88422     -260.0628      -207.15681     -1923.9886     -234.33728      9.894478       9.894478       9.894478      -3777.1814     -573.29126     -1421.4933    
     96800   278.86086     -252.05425     -207.99899     -2689.2544     -247.0857       9.9886571      9.9886571      9.9886571     -2906.2097     -2414.0867     -2747.4669    
     96900   359.91348     -256.17933     -199.31914     -2636.6669     -238.0797       10.026583      10.026583      10.026583     -2351.0078     -3850.1954     -1708.7974    
     97000   339.90209     -243.92155     -190.22282     -5281.0934     -266.85495      9.9832138      9.9832138      9.9832138     -5558.999      -4759.2727     -5525.0086    
     97100   281.13963     -246.5338      -202.11854      759.91474     -191.60195      9.8267843      9.8267843      9.8267843      214.32117      4968.0993     -2902.6762    
     97200   276.94969     -251.66327     -207.90994     -511.18862     -214.61556      9.652962       9.652962       9.652962      -3523.5297      5526.4454     -3536.4816    
     97300   291.47358     -261.21941     -215.17156      1584.9529     -195.34336      9.501606       9.501606       9.501606      -726.32148     -3811.7145      9292.8948    
     97400   335.08331     -264.08047     -211.14303      1243.9725     -196.01065      9.4132634      9.4132634      9.4132634      1378.6883      949.74453      1403.4847    
     97500   269.68059     -266.43531     -223.83038      2538.7914     -193.33295      9.3738954      9.3738954      9.3738954      5230.3673      1850.2456      535.76146    
     97600   302.84472     -270.91865     -223.07435      1866.3712     -200.72593      9.3639194      9.3639194      9.3639194      2081.9781      1567.5571      1949.5784    
     97700   300.78913     -275.42093     -227.90138     -1534.169      -246.28285      9.3657742      9.3657742      9.3657742      120.7551      -1968.4051     -2754.857     
     97800   327.51308     -278.88155     -227.14008     -132.37861     -228.71329      9.3403804      9.3403804      9.3403804     -505.59671     -688.65132      797.11219    
     97900   313.8304      -264.62262     -215.04278      4136.7897     -165.91718      9.3380495      9.3380495      9.3380495      5542.7563      3412.9637      3454.6492    
     98000   345.92666     -259.94536     -205.29485      582.09824     -198.25781      9.393757       9.393757       9.393757       1107.0951     -363.97127      1003.1709    
     98100   327.93595     -253.97993     -202.17164     -1758.363      -223.88198      9.4600628      9.4600628      9.4600628     -4186.5136     -3771.797       2683.2216    
     98200   289.94518     -250.42702     -204.62063     -1585.0972     -224.28715      9.4754209      9.4754209      9.4754209     -3292.5265     -5574.1371      4111.372     
     98300   306.53267     -263.50928     -215.08235     -2495.8193     -245.80231      9.4502621      9.4502621      9.4502621     -3244.318      -6027.4567      1784.3168    
     98400   251.54041     -258.93123     -219.19214      2647.1048     -187.11645      9.401049       9.401049       9.401049       3287.535       1257.5555      3396.2239    
     98500   248.85082     -264.28037     -224.96619      875.55958     -214.37934      9.3943873      9.3943873      9.3943873     -2358.0581      4035.721       949.01581    
     98600   336.22383     -266.86496     -213.74733     -297.07361     -217.339        9.3940393      9.3940393      9.3940393      738.93561     -1890.906       260.74954    
     98700   301.47215     -255.83742     -208.20997      2794.3469     -173.98368      9.4348397      9.4348397      9.4348397     -468.0393       6446.2534      2404.8265    
     98800   301.13872     -253.9529      -206.37812     -1791.3972     -229.12843      9.5493361      9.5493361      9.5493361     -3476.3197     -626.69876     -1271.1731    
     98900   254.68563     -253.25149     -213.0155      -1801.9574     -236.61917      9.6483498      9.6483498      9.6483498     -2144.8321     -3144.6857     -116.3543     
     99000   281.42445     -261.77543     -217.31517      260.12014     -213.85969      9.6936258      9.6936258      9.6936258      1385.0819     -403.00798     -201.71354    
     99100   295.21827     -257.53181     -210.89237     -78.349918     -211.9427       9.7230848      9.7230848      9.7230848     -1964.586       192.51217      1537.0241    
     99200   346.26046     -265.47647     -210.77323     -248.57797     -214.14267      9.7590205      9.7590205      9.7590205     -2806.1238     -1179.8282      3240.218     
     99300   279.41796     -245.68136     -201.53809     -1240.9046     -218.53093      9.7922817      9.7922817      9.7922817      2681.6425     -7818.2488      1413.8927    
     99400   308.87553     -245.9929      -197.19584     -3502.5395     -245.21814      9.7962835      9.7962835      9.7962835     -5608.2342      507.16917     -5406.5533    
     99500   298.82279     -246.08276     -198.87386      376.78653     -193.81543      9.7278024      9.7278024      9.7278024      4716.1984     -1779.6124     -1806.2264    
     99600   311.19734     -250.63347     -201.4696      -4124.4755     -255.05713      9.6221706      9.6221706      9.6221706     -2642.1602     -4062.1812     -5669.085     
     99700   328.1332      -263.11657     -211.27712      727.43664     -202.21798      9.4872131      9.4872131      9.4872131     -2393.672       3647.0315      928.95042    
     99800   276.95041     -268.11662     -224.36318      3677.7182     -179.85268      9.3972916      9.3972916      9.3972916      2488.1403      5864.8332      2680.1812    
     99900   258.26394     -269.62762     -228.82633      3306.2848     -189.12652      9.3725423      9.3725423      9.3725423      6049.9343      2802.8634      1066.0565    
    100000   266.76079     -264.45167     -222.30802      3528.4312     -179.37771      9.4138832      9.4138832      9.4138832      997.30705      7275.8106      2312.1761    
    100100   304.06064     -262.436       -214.3996      -2761.1321     -248.84153      9.4923725      9.4923725      9.4923725     -2353.9069     -5399.9747     -529.51451    
    100200   339.37281     -258.73579     -205.12068     -995.99893     -217.65054      9.5192751      9.5192751      9.5192751     -2473.8903     -620.38809      106.28156    
    100300   340.85334     -261.27973     -207.43072      4684.3381     -148.27257      9.5315489      9.5315489      9.5315489      2306.9205      6579.0646      5167.0291    
    100400   272.56408     -261.32869     -218.26821     -285.21771     -221.94076      9.5933819      9.5933819      9.5933819     -2184.6862      579.21431      749.81879    
    100500   298.76312     -261.35377     -214.1543      -2769.8221     -250.20811      9.6281119      9.6281119      9.6281119     -4355.3573     -3913.8189     -40.290151    
    100600   304.02623     -260.12706     -212.09611     -347.3272      -216.6135       9.6255217      9.6255217      9.6255217     -2633.8008      4632.899      -3041.0798    
    100700   303.48555     -257.97426     -210.02872     -2665.6412     -244.30448      9.5889227      9.5889227      9.5889227     -2149.3913     -4241.922      -1605.6103    
    100800   319.28593     -261.84482     -211.40309      848.94287     -200.69573      9.5274369      9.5274369      9.5274369     -493.50126      963.76489      2076.565     
    100900   276.77583     -267.31667     -223.59081      2374.8878     -193.90322      9.4991625      9.4991625      9.4991625      3151.643       4032.8886     -59.868264    
    101000   310.25328     -278.39972     -229.385       -2701.2869     -263.0461       9.4891479      9.4891479      9.4891479     -5661.3528      534.71809     -2977.2261    
Loop time of 168.498 on 1 procs for 100000 steps with 81 atoms

Performance: 51.277 ns/day, 0.468 hours/ns, 593.479 timesteps/s
81.9% CPU use with 1 MPI tasks x 1 OpenMP threads

MPI task timing breakdown:
Section |  min time  |  avg time  |  max time  |%varavg| %total
---------------------------------------------------------------
Pair    | 79.855     | 79.855     | 79.855     |   0.0 | 47.39
Bond    | 0.143      | 0.143      | 0.143      |   0.0 |  0.08
Kspace  | 17.89      | 17.89      | 17.89      |   0.0 | 10.62
Neigh   | 1.1628     | 1.1628     | 1.1628     |   0.0 |  0.69
Comm    | 3.1905     | 3.1905     | 3.1905     |   0.0 |  1.89
Output  | 0.087795   | 0.087795   | 0.087795   |   0.0 |  0.05
Modify  | 65.266     | 65.266     | 65.266     |   0.0 | 38.73
Other   |            | 0.9032     |            |       |  0.54

Nlocal:             81 ave          81 max          81 min
Histogram: 1 0 0 0 0 0 0 0 0 0
Nghost:           3725 ave        3725 max        3725 min
Histogram: 1 0 0 0 0 0 0 0 0 0
Neighs:          27617 ave       27617 max       27617 min
Histogram: 1 0 0 0 0 0 0 0 0 0

Total # of neighbors = 27617
Ave neighs/atom = 340.95062
Ave special neighs/atom = 2
Neighbor list builds = 1018
Dangerous builds = 0

write_data  water2.data
System init for write_data ...
PPPM initialization ...
  using 12-bit tables for long-range coulomb (src/kspace.cpp:342)
  G vector (1/distance) = 0.31133031
  grid = 9 9 9
  stencil order = 5
  estimated absolute RMS force accuracy = 0.0018979218
  estimated relative force accuracy = 5.7155351e-06
  using double precision FFTW3
  3d grid and FFT values/proc = 4096 729
Generated 0 of 1 mixed pair_coeff terms from geometric mixing rule
WARNING: Not all mixed pair coeffs generated from mixing. Use write_data with 'pair ij' option to store all pair coeffs. (src/write_data.cpp:309)
write_restart     water2.restart
System init for write_restart ...
PPPM initialization ...
  using 12-bit tables for long-range coulomb (src/kspace.cpp:342)
  G vector (1/distance) = 0.31133031
  grid = 9 9 9
  stencil order = 5
  estimated absolute RMS force accuracy = 0.0018979218
  estimated relative force accuracy = 5.7155351e-06
  using double precision FFTW3
  3d grid and FFT values/proc = 4096 729
Generated 0 of 1 mixed pair_coeff terms from geometric mixing rule
Total wall time: 0:02:48
